# vtk DataFile Version 4.2
u
ASCII
DATASET UNSTRUCTURED_GRID

POINTS 2880 double
0.59999999999999976 0.014999999999999999 0 0.5 0.029999999999999999 0 0.5 0.014999999999999999 0 0.59999999999999976 0.014999999999999999 0.0074999999999999997 0.5 0.029999999999999999 0.0074999999999999997 0.5 0.014999999999999999 0.0074999999999999997 0.54999999999999982 0.022499999999999999 0 0.54999999999999982 0.014999999999999999 0 0.59999999999999976 0.014999999999999999 0.0037499999999999999 0.5 0.022499999999999999 0 0.5 0.029999999999999999 0.0037499999999999999 0.5 0.014999999999999999 0.0037499999999999999 0.54999999999999982 0.022499999999999999 0.0074999999999999997 0.54999999999999982 0.014999999999999999 0.0074999999999999997 0.5 0.022499999999999999 0.0074999999999999997 0.54999999999999982 0.022499999999999999 0.0037499999999999999 0.54999999999999982 0.014999999999999999 0.0037499999999999999 0.5 0.022499999999999999 0.0037499999999999999 
0.59999999999999976 0.014999999999999999 0.0074999999999999997 0.5 0.029999999999999999 0.0074999999999999997 0.5 0.014999999999999999 0.0074999999999999997 0.59999999999999976 0.014999999999999999 0.014999999999999999 0.5 0.029999999999999999 0.014999999999999999 0.5 0.014999999999999999 0.014999999999999999 0.54999999999999982 0.022499999999999999 0.0074999999999999997 0.54999999999999982 0.014999999999999999 0.0074999999999999997 0.59999999999999976 0.014999999999999999 0.01125 0.5 0.022499999999999999 0.0074999999999999997 0.5 0.029999999999999999 0.01125 0.5 0.014999999999999999 0.01125 0.54999999999999982 0.022499999999999999 0.014999999999999999 0.54999999999999982 0.014999999999999999 0.014999999999999999 0.5 0.022499999999999999 0.014999999999999999 0.54999999999999982 0.022499999999999999 0.01125 0.54999999999999982 0.014999999999999999 0.01125 0.5 0.022499999999999999 0.01125 
0.5 0.029999999999999999 0 0.59999999999999976 0.014999999999999999 0 0.60000000000000009 0.029999999999999999 0 0.5 0.029999999999999999 0.0074999999999999997 0.59999999999999976 0.014999999999999999 0.0074999999999999997 0.60000000000000009 0.029999999999999999 0.0074999999999999997 0.54999999999999982 0.022499999999999999 0 0.55000000000000004 0.029999999999999999 0 0.5 0.029999999999999999 0.0037499999999999999 0.59999999999999987 0.022499999999999999 0 0.59999999999999976 0.014999999999999999 0.0037499999999999999 0.60000000000000009 0.029999999999999999 0.0037499999999999999 0.54999999999999982 0.022499999999999999 0.0074999999999999997 0.55000000000000004 0.029999999999999999 0.0074999999999999997 0.59999999999999987 0.022499999999999999 0.0074999999999999997 0.54999999999999982 0.022499999999999999 0.0037499999999999999 0.55000000000000004 0.029999999999999999 0.0037499999999999999 0.59999999999999987 0.022499999999999999 0.0037499999999999999 
0.5 0.029999999999999999 0.0074999999999999997 0.59999999999999976 0.014999999999999999 0.0074999999999999997 0.60000000000000009 0.029999999999999999 0.0074999999999999997 0.5 0.029999999999999999 0.014999999999999999 0.59999999999999976 0.014999999999999999 0.014999999999999999 0.60000000000000009 0.029999999999999999 0.014999999999999999 0.54999999999999982 0.022499999999999999 0.0074999999999999997 0.55000000000000004 0.029999999999999999 0.0074999999999999997 0.5 0.029999999999999999 0.01125 0.59999999999999987 0.022499999999999999 0.0074999999999999997 0.59999999999999976 0.014999999999999999 0.01125 0.60000000000000009 0.029999999999999999 0.01125 0.54999999999999982 0.022499999999999999 0.014999999999999999 0.55000000000000004 0.029999999999999999 0.014999999999999999 0.59999999999999987 0.022499999999999999 0.014999999999999999 0.54999999999999982 0.022499999999999999 0.01125 0.55000000000000004 0.029999999999999999 0.01125 0.59999999999999987 0.022499999999999999 0.01125 
1 0.029999999999999999 0 0.90000000000000024 0.029999999999999999 0 1 0.014999999999999999 0 1 0.029999999999999999 0.0074999999999999997 0.90000000000000024 0.029999999999999999 0.0074999999999999997 1 0.014999999999999999 0.0074999999999999997 0.95000000000000018 0.029999999999999999 0 1 0.022499999999999999 0 1 0.029999999999999999 0.0037499999999999999 0.95000000000000018 0.022499999999999999 0 0.90000000000000024 0.029999999999999999 0.0037499999999999999 1 0.014999999999999999 0.0037499999999999999 0.95000000000000018 0.029999999999999999 0.0074999999999999997 1 0.022499999999999999 0.0074999999999999997 0.95000000000000018 0.022499999999999999 0.0074999999999999997 0.95000000000000018 0.029999999999999999 0.0037499999999999999 1 0.022499999999999999 0.0037499999999999999 0.95000000000000018 0.022499999999999999 0.0037499999999999999 
1 0.029999999999999999 0.0074999999999999997 0.90000000000000024 0.029999999999999999 0.0074999999999999997 1 0.014999999999999999 0.0074999999999999997 1 0.029999999999999999 0.014999999999999999 0.90000000000000024 0.029999999999999999 0.014999999999999999 1 0.014999999999999999 0.014999999999999999 0.95000000000000018 0.029999999999999999 0.0074999999999999997 1 0.022499999999999999 0.0074999999999999997 1 0.029999999999999999 0.01125 0.95000000000000018 0.022499999999999999 0.0074999999999999997 0.90000000000000024 0.029999999999999999 0.01125 1 0.014999999999999999 0.01125 0.95000000000000018 0.029999999999999999 0.014999999999999999 1 0.022499999999999999 0.014999999999999999 0.95000000000000018 0.022499999999999999 0.014999999999999999 0.95000000000000018 0.029999999999999999 0.01125 1 0.022499999999999999 0.01125 0.95000000000000018 0.022499999999999999 0.01125 
0.90000000000000024 0.029999999999999999 0 0.89999999999999991 0.014999999999999999 0 1 0.014999999999999999 0 0.90000000000000024 0.029999999999999999 0.0074999999999999997 0.89999999999999991 0.014999999999999999 0.0074999999999999997 1 0.014999999999999999 0.0074999999999999997 0.90000000000000013 0.022499999999999999 0 0.95000000000000018 0.022499999999999999 0 0.90000000000000024 0.029999999999999999 0.0037499999999999999 0.94999999999999996 0.014999999999999999 0 0.89999999999999991 0.014999999999999999 0.0037499999999999999 1 0.014999999999999999 0.0037499999999999999 0.90000000000000013 0.022499999999999999 0.0074999999999999997 0.95000000000000018 0.022499999999999999 0.0074999999999999997 0.94999999999999996 0.014999999999999999 0.0074999999999999997 0.90000000000000013 0.022499999999999999 0.0037499999999999999 0.95000000000000018 0.022499999999999999 0.0037499999999999999 0.94999999999999996 0.014999999999999999 0.0037499999999999999 
0.90000000000000024 0.029999999999999999 0.0074999999999999997 0.89999999999999991 0.014999999999999999 0.0074999999999999997 1 0.014999999999999999 0.0074999999999999997 0.90000000000000024 0.029999999999999999 0.014999999999999999 0.89999999999999991 0.014999999999999999 0.014999999999999999 1 0.014999999999999999 0.014999999999999999 0.90000000000000013 0.022499999999999999 0.0074999999999999997 0.95000000000000018 0.022499999999999999 0.0074999999999999997 0.90000000000000024 0.029999999999999999 0.01125 0.94999999999999996 0.014999999999999999 0.0074999999999999997 0.89999999999999991 0.014999999999999999 0.01125 1 0.014999999999999999 0.01125 0.90000000000000013 0.022499999999999999 0.014999999999999999 0.95000000000000018 0.022499999999999999 0.014999999999999999 0.94999999999999996 0.014999999999999999 0.014999999999999999 0.90000000000000013 0.022499999999999999 0.01125 0.95000000000000018 0.022499999999999999 0.01125 0.94999999999999996 0.014999999999999999 0.01125 
0.90000000000000024 0.029999999999999999 0 0.80000000000000016 0.029999999999999999 0 0.89999999999999991 0.014999999999999999 0 0.90000000000000024 0.029999999999999999 0.0074999999999999997 0.80000000000000016 0.029999999999999999 0.0074999999999999997 0.89999999999999991 0.014999999999999999 0.0074999999999999997 0.8500000000000002 0.029999999999999999 0 0.90000000000000013 0.022499999999999999 0 0.90000000000000024 0.029999999999999999 0.0037499999999999999 0.85000000000000009 0.022499999999999999 0 0.80000000000000016 0.029999999999999999 0.0037499999999999999 0.89999999999999991 0.014999999999999999 0.0037499999999999999 0.8500000000000002 0.029999999999999999 0.0074999999999999997 0.90000000000000013 0.022499999999999999 0.0074999999999999997 0.85000000000000009 0.022499999999999999 0.0074999999999999997 0.8500000000000002 0.029999999999999999 0.0037499999999999999 0.90000000000000013 0.022499999999999999 0.0037499999999999999 0.85000000000000009 0.022499999999999999 0.0037499999999999999 
0.90000000000000024 0.029999999999999999 0.0074999999999999997 0.80000000000000016 0.029999999999999999 0.0074999999999999997 0.89999999999999991 0.014999999999999999 0.0074999999999999997 0.90000000000000024 0.029999999999999999 0.014999999999999999 0.80000000000000016 0.029999999999999999 0.014999999999999999 0.89999999999999991 0.014999999999999999 0.014999999999999999 0.8500000000000002 0.029999999999999999 0.0074999999999999997 0.90000000000000013 0.022499999999999999 0.0074999999999999997 0.90000000000000024 0.029999999999999999 0.01125 0.85000000000000009 0.022499999999999999 0.0074999999999999997 0.80000000000000016 0.029999999999999999 0.01125 0.89999999999999991 0.014999999999999999 0.01125 0.8500000000000002 0.029999999999999999 0.014999999999999999 0.90000000000000013 0.022499999999999999 0.014999999999999999 0.85000000000000009 0.022499999999999999 0.014999999999999999 0.8500000000000002 0.029999999999999999 0.01125 0.90000000000000013 0.022499999999999999 0.01125 0.85000000000000009 0.022499999999999999 0.01125 
[...]
POINT_DATA 2880

VECTORS u double
-0.0032363259204678287 6.8237331478393466e-06 0.11864906840678123
1.0087997848968942e-08 0.00015788126185055151 0.12972830129942786
-6.0044771413764759e-07 6.5427097768383161e-06 0.12964460705304551
-0.0016099627611815888 3.4634951808232129e-06 0.11869826263540791
1.6203169169687659e-06 7.9070339313936581e-05 0.12978363529505954
-1.1753835760687007e-06 3.3290950220602952e-06 0.12970051062905025
-0.0016524864035946966 7.8925382048787606e-05 0.12687861493843164
-0.0016525903334575591 6.313987069881007e-06 0.12685808584985375
-0.0024201671550827687 5.1588546764201251e-06 0.11867764977613805
-2.3891063642512371e-08 8.215682931512767e-05 0.12966684775493995
1.8941443317495479e-06 0.00011848896844903752 0.12976022437987239
-1.5003438024815701e-06 4.8808163075067628e-06 0.12967688487336698
-0.00082638624590378705 3.9475330187113691e-05 0.12693344200731591
-0.00082565463297696467 3.1049816816516536e-06 0.126912336208865
1.530326966906776e-07 4.1164957753525855e-05 0.1297233718268084
-0.0012395455710500368 5.927493481358324e-05 0.12691064765136176
-0.0012387032306607928 4.6740636684490805e-06 0.12688977776107818
8.0469513887574656e-08 6.1650379130537126e-05 0.1296997703557525
-0.0016099627611815888 3.4634951808232129e-06 0.11869826263540791
1.6203169169687659e-06 7.9070339313936581e-05 0.12978363529505954
-1.1753835760687007e-06 3.3290950220602952e-06 0.12970051062905025
4.7599315181260477e-17 -2.2139738842027136e-11 0.11871466620541
5.3255306797114507e-15 -2.4141114621428667e-11 0.12980259935167388
1.2733040765380275e-16 -2.4155030601937032e-11 0.12971958036257669
-0.00082638624590378705 3.9475330187113691e-05 0.12693344200731591
-0.00082565463297696467 3.1049816816516536e-06 0.126912336208865
-0.00080395073204627267 1.737497640997134e-06 0.11871056656717151
1.530326966906776e-07 4.1164957753525855e-05 0.1297233718268084
8.8196887658986543e-07 3.9552966210511322e-05 0.1297978296993052
-6.0731526116490533e-07 1.6810925749266486e-06 0.1297147924352916
-1.5092396658256682e-13 -2.365187081669047e-11 0.12695155934959967
3.7745673152250737e-17 -2.3655368878499163e-11 0.12693036108106018
2.6989398687368267e-15 -2.415150873725501e-11 0.12974235148317648
-0.00041317741692201019 1.9731149475879937e-05 0.1269470412162875
-0.00041279456423890258 1.5465683262539422e-06 0.12692586113967613
1.014400462508999e-07 2.0603475147685421e-05 0.12973759445515931
1.0087997848968942e-08 0.00015788126185055151 0.12972830129942786
-0.0032363259204678287 6.8237331478393466e-06 0.11864906840678123
-0.0032347318876427651 0.00013661176866681718 0.1187269915530124
1.6203169169687659e-06 7.9070339313936581e-05 0.12978363529505954
-0.0016099627611815888 3.4634951808232129e-06 0.11869826263540791
-0.0016057032497213265 6.8187395005398727e-05 0.11877201315188438
-0.0016524864035946966 7.8925382048787606e-05 0.12687861493843164
-0.001651675061651991 0.00015096490059934343 0.12693478165227243
1.8941443317495479e-06 0.00011848896844903752 0.12976022437987239
-0.0032360966001833353 7.2171789771139529e-05 0.11867112727175902
-0.0024201671550827687 5.1588546764201251e-06 0.11867764977613805
-0.0024150197634548853 0.00010237356695415782 0.11875265798853621
-0.00082638624590378705 3.9475330187113691e-05 0.12693344200731591
-0.0008267276175880241 7.5792995834213914e-05 0.12699054438529228
-0.0016081704261986397 3.5764389950849936e-05 0.11871921741737888
-0.0012395455710500368 5.927493481358324e-05 0.12691064765136176
-0.0012399159812754739 0.00011365492323200889 0.12696762214535859
-0.002418090415517556 5.3597603979274941e-05 0.11869914788600255
1.6203169169687659e-06 7.9070339313936581e-05 0.12978363529505954
-0.0016099627611815888 3.4634951808232129e-06 0.11869826263540791
-0.0016057032497213265 6.8187395005398727e-05 0.11877201315188438
5.3255306797114507e-15 -2.4141114621428667e-11 0.12980259935167388
4.7599315181260477e-17 -2.2139738842027136e-11 0.11871466620541
-6.0075861281471805e-13 -2.2128340515137516e-11 0.11878799409297135
-0.00082638624590378705 3.9475330187113691e-05 0.12693344200731591
-0.0008267276175880241 7.5792995834213914e-05 0.12699054438529228
8.8196887658986543e-07 3.9552966210511322e-05 0.1297978296993052
-0.0016081704261986397 3.5764389950849936e-05 0.11871921741737888
-0.00080395073204627267 1.737497640997134e-06 0.11871056656717151
-0.0008016692677617007 3.410286025234531e-05 0.11878394712688789
-1.5092396658256682e-13 -2.365187081669047e-11 0.12695155934959967
-3.0202556599400176e-13 -2.3641564093049482e-11 0.12700865664629316
-2.9936390379112069e-13 -2.2137061933398387e-11 0.11873537350658364
-0.00041317741692201019 1.9731149475879937e-05 0.1269470412162875
-0.00041336167229504152 3.7891474810552909e-05 0.12700415429652659
-0.00080298493567154097 1.7890155746203823e-05 0.11873132434873085
0 0 0
-0.0041830424590462633 -0.00014979517431187818 0.014680898049100026
0 0 0
0 0 0
-0.0020794756574019639 -6.8005800446839911e-05 0.01467029124712398
0 0 0
-0.0021839808770760562 -0.00017839434786251718 0.0039024665940029274
0 0 0
0 0 0
-0.0021848498980178012 -9.7410968099004869e-05 0.0039503278119945992
-0.0031273564087608923 -0.00010450106832257505 0.014676360036748897
0 0 0
-0.0010803059799511156 -9.5555231233623519e-05 0.0037984208286725696
0 0 0
-0.0010832906055145222 -5.1160081123267017e-05 0.0038637882367172807
-0.0016274067733452703 -0.00014157749109357378 0.0038403966839568211
0 0 0
-0.0016309893387548994 -7.4581351569891522e-05 0.00390007863574672
0 0 0
-0.0020794756574019639 -6.8005800446839911e-05 0.01467029124712398
0 0 0
0 0 0
-7.8676814569131851e-13 -2.7519246010697227e-12 0.014663615321623538
0 0 0
-0.0010803059799511156 -9.5555231233623519e-05 0.0037984208286725696
0 0 0
0 0 0
-0.0010832906055145222 -5.1160081123267017e-05 0.0038637882367172807
-0.0010381389030394068 -3.3629288964712184e-05 0.014665405496484126
0 0 0
-4.0367866816173018e-13 -7.3153073493251411e-13 0.0037656508905426871
0 0 0
-2.019034594929774e-13 -7.1849425095966141e-13 0.0038343425673113773
-0.0005387926987204261 -4.8216841322652062e-05 0.0037737588340928802
0 0 0
-0.00054042760098842071 -2.5831143188987841e-05 0.0038417144280946261
-0.0041830424590462633 -0.00014979517431187818 0.014680898049100026
-0.004181070116272066 1.0620868935974594e-05 0.01476468898189667
0 0 0
-0.0020794756574019639 -6.8005800446839911e-05 0.01467029124712398
-0.0020756876904982346 6.0270306980221087e-06 0.014738410571245298
0 0 0
-0.0041838948197283161 -6.6969294998463241e-05 0.014757342693592414
-0.0021848498980178012 -9.7410968099004869e-05 0.0039503278119945992
-0.0031273564087608923 -0.00010450106832257505 0.014676360036748897
-0.0021878161288279812 -1.1035418374749211e-05 0.0039769307631264249
-0.00312303346178958 8.0445187347361277e-06 0.014751128950204445
0 0 0
-0.0020767065780442572 -3.0197641827115688e-05 0.014720197022481203
-0.0010832906055145222 -5.1160081123267017e-05 0.0038637882367172807
-0.0010850909920342186 -6.9772382646115787e-06 0.0038887785852102885
-0.0031239975892514912 -4.7339344854003828e-05 0.014735444227706097
-0.0016309893387548994 -7.4581351569891522e-05 0.00390007863574672
-0.0016331664093106521 -9.604447882950574e-06 0.0039252614195092244
-0.0020794756574019639 -6.8005800446839911e-05 0.01467029124712398
-0.0020756876904982346 6.0270306980221087e-06 0.014738410571245298
0 0 0
-7.8676814569131851e-13 -2.7519246010697227e-12 0.014663615321623538
2.0071558718657874e-15 -2.7375937656386791e-12 0.014726716581943298
0 0 0
-0.0020767065780442572 -3.0197641827115688e-05 0.014720197022481203
-0.0010832906055145222 -5.1160081123267017e-05 0.0038637882367172807
-0.0010381389030394068 -3.3629288964712184e-05 0.014665405496484126
-0.0010850909920342186 -6.9772382646115787e-06 0.0038887785852102885
-0.0010360189012390431 3.2888420944213656e-06 0.014729734578481755
0 0 0
-3.8981917703501877e-13 -2.7414859115232426e-12 0.014708601905336821
-2.019034594929774e-13 -7.1849425095966141e-13 0.0038343425673113773
-1.6210901068093214e-15 -7.1421042532584109e-13 0.0038598188543968095
-0.0010365943657805186 -1.4830029514787501e-05 0.014711492494261392
-0.00054042760098842071 -2.5831143188987841e-05 0.0038417144280946261
-0.00054147668868956235 -3.70342201740371e-06 0.0038670194003717065
-0.0041830424590462633 -0.00014979517431187818 0.014680898049100026
-0.0059943071014507436 -1.6621505599256857e-05 0.049725365054909904
-0.004181070116272066 1.0620868935974594e-05 0.01476468898189667
-0.0020794756574019639 -6.8005800446839911e-05 0.01467029124712398
-0.0029749911623487666 -9.0243731740188912e-06 0.049713731443639803
-0.0020756876904982346 6.0270306980221087e-06 0.014738410571245298
-0.005256220817369422 -8.1846041581798594e-05 0.030700483216022215
-0.0041838948197283161 -6.6969294998463241e-05 0.014757342693592414
-0.0031273564087608923 -0.00010450106832257505 0.014676360036748897
-0.005258843713151426 -3.6257781193342614e-05 0.030733429911331347
-0.0044759005473764017 -1.2779753909388984e-05 0.049718508116896959
-0.00312303346178958 8.0445187347361277e-06 0.014751128950204445
-0.0026251184099738856 -3.8782114782318655e-05 0.03067282803482425
-0.0020767065780442572 -3.0197641827115688e-05 0.014720197022481203
-0.0026287079900259623 -1.8317827247347508e-05 0.030702329433739812
-0.003939334333920675 -5.8069274314866736e-05 0.030685098047231192
-0.0031239975892514912 -4.7339344854003828e-05 0.014735444227706097
-0.0039441503324106038 -2.7969892276997788e-05 0.030715471295280954
-0.0020794756574019639 -6.8005800446839911e-05 0.01467029124712398
-0.0029749911623487666 -9.0243731740188912e-06 0.049713731443639803
-0.0020756876904982346 6.0270306980221087e-06 0.014738410571245298
-7.8676814569131851e-13 -2.7519246010697227e-12 0.014663615321623538
-1.1282553939917577e-12 -9.2754563452157732e-12 0.049710358418482786
2.0071558718657874e-15 -2.7375937656386791e-12 0.014726716581943298
-0.0026251184099738856 -3.8782114782318655e-05 0.03067282803482425
-0.0020767065780442572 -3.0197641827115688e-05 0.014720197022481203
-0.0010381389030394068 -3.3629288964712184e-05 0.014665405496484126
-0.0026287079900259623 -1.8317827247347508e-05 0.030702329433739812
-0.0014849370119824985 -4.5344877418044203e-06 0.049711188205484279
-0.0010360189012390431 3.2888420944213656e-06 0.014729734578481755
-9.7825945310683242e-13 -5.7261709876012563e-12 0.030662629164188552
-3.8981917703501877e-13 -2.7414859115232426e-12 0.014708601905336821
-4.8911808416571345e-13 -5.7206579447422736e-12 0.030691797058813731
-0.0013122172490503013 -1.9273141290924347e-05 0.030665216795749919
-0.0010365943657805186 -1.4830029514787501e-05 0.014711492494261392
-0.0013141058489942769 -9.1662597364063076e-06 0.030694426437097546
-0.0059943071014507436 -1.6621505599256857e-05 0.049725365054909904
-0.005502171225832941 7.5396264741414305e-05 0.088981427046660858
-0.0059973180033212172 7.9745654123259698e-06 0.049722915412008691
-0.0029749911623487666 -9.0243731740188912e-06 0.049713731443639803
-0.0027314886427222567 3.7135432203643171e-05 0.089001492231966947
-0.0029774086489756332 4.4024367438868219e-06 0.049715555022537584
-0.0058929085794654371 2.8227858635453563e-05 0.069763875441864465
-0.0059983979839834875 -3.0874647375157702e-06 0.049727887116223862
-0.0044759005473764017 -1.2779753909388984e-05 0.049718508116896959
-0.0058957495386802866 1.9536077828460196e-05 0.069755638989554836
-0.0041085378315423122 5.6052571090383626e-05 0.088992470579223285
-0.0044788484324335834 6.3584875563717996e-06 0.049719051243215989
-0.0029465203517291864 1.5416245991990486e-05 0.069775665923868357
-0.0029770011483146981 -2.272341815954369e-06 0.049717976899600856
-0.0029484415856226641 9.9441066891382521e-06 0.069764068706155938
-0.0044200517015098818 2.292555453745343e-05 0.0697713887071537
-0.0044785813286384998 -3.3618750486524861e-06 0.049721960583639188
-0.0044227268080469411 1.5026949601632241e-05 0.06976075112244208
-0.0029749911623487666 -9.0243731740188912e-06 0.049713731443639803
-0.0027314886427222567 3.7135432203643171e-05 0.089001492231966947
-0.0029774086489756332 4.4024367438868219e-06 0.049715555022537584
-1.1282553939917577e-12 -9.2754563452157732e-12 0.049710358418482786
-1.032683158384959e-12 -1.6600717296147529e-11 0.08900934521753584
5.3854280051721326e-16 -9.2711991622097479e-12 0.049712473655802385
-0.0029465203517291864 1.5416245991990486e-05 0.069775665923868357
-0.0029770011483146981 -2.272341815954369e-06 0.049717976899600856
-0.0014849370119824985 -4.5344877418044203e-06 0.049711188205484279
-0.0029484415856226641 9.9441066891382521e-06 0.069764068706155938
-0.0013636352743326664 1.8557512405308144e-05 0.0890073175960122
-0.0014862888947572823 2.2425438526110639e-06 0.049713275675310316
-1.098670966594485e-12 -1.3017819974437782e-11 0.069778631855729037
-5.6136504077372401e-13 -9.2728015313430906e-12 0.049714812793058748
-5.4923085707791647e-13 -1.301963434893298e-11 0.069766737572971846
-0.0014731499798632936 7.7234777367442179e-06 0.069777941649140404
-0.0014860076148322059 -1.1488523695423938e-06 0.04971559404250487
-0.0014741427598925457 4.9579107530734436e-06 0.069766077177695549
-0.004181070116272066 1.0620868935974594e-05 0.01476468898189667
-0.0059943071014507436 -1.6621505599256857e-05 0.049725365054909904
-0.0059973180033212172 7.9745654123259698e-06 0.049722915412008691
-0.0020756876904982346 6.0270306980221087e-06 0.014738410571245298
-0.0029749911623487666 -9.0243731740188912e-06 0.049713731443639803
-0.0029774086489756332 4.4024367438868219e-06 0.049715555022537584
-0.005258843713151426 -3.6257781193342614e-05 0.030733429911331347
-0.0052598369697140022 4.2466035706278904e-06 0.030741770169878984
-0.00312303346178958 8.0445187347361277e-06 0.014751128950204445
-0.0059983979839834875 -3.0874647375157702e-06 0.049727887116223862
-0.0044759005473764017 -1.2779753909388984e-05 0.049718508116896959
-0.0044788484324335834 6.3584875563717996e-06 0.049719051243215989
-0.0026287079900259623 -1.8317827247347508e-05 0.030702329433739812
-0.0026299367722522264 2.3328039144022368e-06 0.030710249757561845
-0.0029770011483146981 -2.272341815954369e-06 0.049717976899600856
-0.0039441503324106038 -2.7969892276997788e-05 0.030715471295280947
-0.0039452652744885576 3.970432235836397e-06 0.030723192988779405
-0.0044785813286384998 -3.3618750486524861e-06 0.049721960583639188
-0.0020756876904982346 6.0270306980221087e-06 0.014738410571245298
-0.0029749911623487666 -9.0243731740188912e-06 0.049713731443639803
-0.0029774086489756332 4.4024367438868219e-06 0.049715555022537584
2.0071558718657874e-15 -2.7375937656386791e-12 0.014726716581943298
-1.1282553939917577e-12 -9.2754563452157732e-12 0.049710358418482786
5.3854280051721326e-16 -9.2711991622097479e-12 0.049712473655802385
-0.0026287079900259623 -1.8317827247347508e-05 0.030702329433739812
-0.0026299367722522264 2.3328039144022368e-06 0.030710249757561845
-0.0010360189012390431 3.2888420944213656e-06 0.014729734578481755
-0.0029770011483146981 -2.272341815954369e-06 0.049717976899600856
-0.0014849370119824985 -4.5344877418044203e-06 0.049711188205484279
-0.0014862888947572823 2.2425438526110639e-06 0.049713275675310316
-4.8911808416571345e-13 -5.7206579447422736e-12 0.030691797058813731
-3.9878561692052715e-16 -5.7193955834037422e-12 0.030699859760064337
-5.6136504077372401e-13 -9.2728015313430906e-12 0.049714812793058748
-0.0013141058489942769 -9.1662597364063076e-06 0.030694426437097553
-0.001314795072654583 1.1907036355139731e-06 0.030702454779615414
-0.0014860076148322059 -1.1488523695423938e-06 0.04971559404250487
-0.0055047901539850988 7.8590950257691295e-06 0.088929246507136336
-0.005502171225832941 7.5396264741414305e-05 0.088981427046660858
-0.0032347318876427651 0.00013661176866681718 0.1187269915530124
-0.0027357748652731338 3.9504063809600358e-06 0.088956894377959839
-0.0027314886427222567 3.7135432203643171e-05 0.089001492231966947
-0.0016057032497213265 6.8187395005398727e-05 0.11877201315188438
-0.0055047134898946418 4.2436436722502351e-05 0.088946731987895003
-0.0044675162210779376 5.8328940225954413e-05 0.1057103976462163
-0.0041137317409944705 5.9215508613770954e-06 0.088945620835619868
-0.004465472563956044 0.00010760004671654933 0.10574884546575106
-0.0041085378315423122 5.6052571090383626e-05 0.088992470579223285
-0.0024150197634548853 0.00010237356695415782 0.11875265798853621
-0.0027342825847909615 2.0451520433033157e-05 0.088971040707067003
-0.0022342112323238024 2.9250875975559216e-05 0.10574877490547585
-0.0022334211919792469 5.467527606600636e-05 0.10578988934735833
-0.0041120791247214704 3.07177652893441e-05 0.088960838889955526
-0.003351291008646895 4.398041759005714e-05 0.1057328695026029
-0.0033501238226337489 8.190918286284858e-05 0.10577336304739554
-0.0027357748652731338 3.9504063809600358e-06 0.088956894377959839
-0.0027314886427222567 3.7135432203643171e-05 0.089001492231966947
-0.0016057032497213265 6.8187395005398727e-05 0.11877201315188438
-3.027773080087377e-17 -1.6605633971725747e-11 0.088965554992465487
-1.032683158384959e-12 -1.6600717296147529e-11 0.08900934521753584
-6.0075861281471805e-13 -2.2128340515137516e-11 0.11878799409297135
-0.0027342825847909615 2.0451520433033157e-05 0.088971040707067003
-0.0022342112323238024 2.9250875975559216e-05 0.10574877490547585
-0.0013659579245330401 1.9808382800305598e-06 0.088963418403614353
-0.0022334211919792469 5.467527606600636e-05 0.10578988934735833
-0.0013636352743326664 1.8557512405308144e-05 0.0890073175960122
-0.0008016692677617007 3.410286025234531e-05 0.11878394712688789
-5.1442993974460228e-13 -1.6604821655273111e-11 0.088979312885396608
-4.1440275953515195e-13 -1.9733178570634328e-11 0.10576143714921903
-8.2908394181506278e-13 -1.9725764533802849e-11 0.10580268441721524
-0.0013651305428639513 1.0220191383413522e-05 0.08897723556729599
-0.0011170598511793528 1.4610557108099123e-05 0.10575827945999333
-0.001116653174867826 2.7338487137856625e-05 0.1057995302180321
-0.0059973180033212172 7.9745654123259698e-06 0.049722915412008691
-0.005502171225832941 7.5396264741414305e-05 0.088981427046660858
-0.0055047901539850988 7.8590950257691295e-06 0.088929246507136336
-0.0029774086489756332 4.4024367438868219e-06 0.049715555022537584
-0.0027314886427222567 3.7135432203643171e-05 0.089001492231966947
-0.0027357748652731338 3.9504063809600358e-06 0.088956894377959839
-0.0058957495386802866 1.9536077828460196e-05 0.069755638989554836
-0.0058961831174740983 8.4295610482183277e-06 0.069752082966538329
-0.0044788484324335834 6.3584875563717996e-06 0.049719051243215989
-0.0055047134898946418 4.2436436722502351e-05 0.088946731987895003
-0.0041085378315423122 5.6052571090383626e-05 0.088992470579223285
-0.0041137317409944705 5.9215508613770954e-06 0.088945620835619868
-0.0029484415856226641 9.9441066891382521e-06 0.069764068706155938
-0.0029487186303446575 4.2365469822813458e-06 0.069757683788551128
-0.0027342825847909615 2.0451520433033157e-05 0.088971040707067003
-0.0044227268080469411 1.5026949601632241e-05 0.06976075112244208
-0.0044230061611113666 6.3229535426218591e-06 0.069754837570471365
-0.0041120791247214695 3.07177652893441e-05 0.088960838889955526
-0.0029774086489756332 4.4024367438868219e-06 0.049715555022537584
-0.0027314886427222567 3.7135432203643171e-05 0.089001492231966947
-0.0027357748652731338 3.9504063809600358e-06 0.088956894377959839
5.3854280051721326e-16 -9.2711991622097479e-12 0.049712473655802385
-1.032683158384959e-12 -1.6600717296147529e-11 0.08900934521753584
-3.027773080087377e-17 -1.6605633971725747e-11 0.088965554992465487
-0.0029484415856226641 9.9441066891382521e-06 0.069764068706155938
-0.0029487186303446575 4.2365469822813458e-06 0.069757683788551128
-0.0014862888947572823 2.2425438526110639e-06 0.049713275675310316
-0.0027342825847909615 2.0451520433033157e-05 0.088971040707067003
-0.0013636352743326664 1.8557512405308144e-05 0.0890073175960122
-0.0013659579245330401 1.9808382800305598e-06 0.088963418403614353
-5.4923085707791647e-13 -1.301963434893298e-11 0.069766737572971846