# vtk DataFile Version 4.2
u
ASCII
DATASET UNSTRUCTURED_GRID

POINTS 2880 double
0.59999999999999976 0.014999999999999999 0 0.5 0.029999999999999999 0 0.5 0.014999999999999999 0 0.59999999999999976 0.014999999999999999 0.0074999999999999997 0.5 0.029999999999999999 0.0074999999999999997 0.5 0.014999999999999999 0.0074999999999999997 0.54999999999999982 0.022499999999999999 0 0.54999999999999982 0.014999999999999999 0 0.59999999999999976 0.014999999999999999 0.0037499999999999999 0.5 0.022499999999999999 0 0.5 0.029999999999999999 0.0037499999999999999 0.5 0.014999999999999999 0.0037499999999999999 0.54999999999999982 0.022499999999999999 0.0074999999999999997 0.54999999999999982 0.014999999999999999 0.0074999999999999997 0.5 0.022499999999999999 0.0074999999999999997 0.54999999999999982 0.022499999999999999 0.0037499999999999999 0.54999999999999982 0.014999999999999999 0.0037499999999999999 0.5 0.022499999999999999 0.0037499999999999999 
0.59999999999999976 0.014999999999999999 0.0074999999999999997 0.5 0.029999999999999999 0.0074999999999999997 0.5 0.014999999999999999 0.0074999999999999997 0.59999999999999976 0.014999999999999999 0.014999999999999999 0.5 0.029999999999999999 0.014999999999999999 0.5 0.014999999999999999 0.014999999999999999 0.54999999999999982 0.022499999999999999 0.0074999999999999997 0.54999999999999982 0.014999999999999999 0.0074999999999999997 0.59999999999999976 0.014999999999999999 0.01125 0.5 0.022499999999999999 0.0074999999999999997 0.5 0.029999999999999999 0.01125 0.5 0.014999999999999999 0.01125 0.54999999999999982 0.022499999999999999 0.014999999999999999 0.54999999999999982 0.014999999999999999 0.014999999999999999 0.5 0.022499999999999999 0.014999999999999999 0.54999999999999982 0.022499999999999999 0.01125 0.54999999999999982 0.014999999999999999 0.01125 0.5 0.022499999999999999 0.01125 
0.5 0.029999999999999999 0 0.59999999999999976 0.014999999999999999 0 0.60000000000000009 0.029999999999999999 0 0.5 0.029999999999999999 0.0074999999999999997 0.59999999999999976 0.014999999999999999 0.0074999999999999997 0.60000000000000009 0.029999999999999999 0.0074999999999999997 0.54999999999999982 0.022499999999999999 0 0.55000000000000004 0.029999999999999999 0 0.5 0.029999999999999999 0.0037499999999999999 0.59999999999999987 0.022499999999999999 0 0.59999999999999976 0.014999999999999999 0.0037499999999999999 0.60000000000000009 0.029999999999999999 0.0037499999999999999 0.54999999999999982 0.022499999999999999 0.0074999999999999997 0.55000000000000004 0.029999999999999999 0.0074999999999999997 0.59999999999999987 0.022499999999999999 0.0074999999999999997 0.54999999999999982 0.022499999999999999 0.0037499999999999999 0.55000000000000004 0.029999999999999999 0.0037499999999999999 0.59999999999999987 0.022499999999999999 0.0037499999999999999 
0.5 0.029999999999999999 0.0074999999999999997 0.59999999999999976 0.014999999999999999 0.0074999999999999997 0.60000000000000009 0.029999999999999999 0.0074999999999999997 0.5 0.029999999999999999 0.014999999999999999 0.59999999999999976 0.014999999999999999 0.014999999999999999 0.60000000000000009 0.029999999999999999 0.014999999999999999 0.54999999999999982 0.022499999999999999 0.0074999999999999997 0.55000000000000004 0.029999999999999999 0.0074999999999999997 0.5 0.029999999999999999 0.01125 0.59999999999999987 0.022499999999999999 0.0074999999999999997 0.59999999999999976 0.014999999999999999 0.01125 0.60000000000000009 0.029999999999999999 0.01125 0.54999999999999982 0.022499999999999999 0.014999999999999999 0.55000000000000004 0.029999999999999999 0.014999999999999999 0.59999999999999987 0.022499999999999999 0.014999999999999999 0.54999999999999982 0.022499999999999999 0.01125 0.55000000000000004 0.029999999999999999 0.01125 0.59999999999999987 0.022499999999999999 0.01125 
1 0.029999999999999999 0 0.90000000000000024 0.029999999999999999 0 1 0.014999999999999999 0 1 0.029999999999999999 0.0074999999999999997 0.90000000000000024 0.029999999999999999 0.0074999999999999997 1 0.014999999999999999 0.0074999999999999997 0.95000000000000018 0.029999999999999999 0 1 0.022499999999999999 0 1 0.029999999999999999 0.0037499999999999999 0.95000000000000018 0.022499999999999999 0 0.90000000000000024 0.029999999999999999 0.0037499999999999999 1 0.014999999999999999 0.0037499999999999999 0.95000000000000018 0.029999999999999999 0.0074999999999999997 1 0.022499999999999999 0.0074999999999999997 0.95000000000000018 0.022499999999999999 0.0074999999999999997 0.95000000000000018 0.029999999999999999 0.0037499999999999999 1 0.022499999999999999 0.0037499999999999999 0.95000000000000018 0.022499999999999999 0.0037499999999999999 
1 0.029999999999999999 0.0074999999999999997 0.90000000000000024 0.029999999999999999 0.0074999999999999997 1 0.014999999999999999 0.0074999999999999997 1 0.029999999999999999 0.014999999999999999 0.90000000000000024 0.029999999999999999 0.014999999999999999 1 0.014999999999999999 0.014999999999999999 0.95000000000000018 0.029999999999999999 0.0074999999999999997 1 0.022499999999999999 0.0074999999999999997 1 0.029999999999999999 0.01125 0.95000000000000018 0.022499999999999999 0.0074999999999999997 0.90000000000000024 0.029999999999999999 0.01125 1 0.014999999999999999 0.01125 0.95000000000000018 0.029999999999999999 0.014999999999999999 1 0.022499999999999999 0.014999999999999999 0.95000000000000018 0.022499999999999999 0.014999999999999999 0.95000000000000018 0.029999999999999999 0.01125 1 0.022499999999999999 0.01125 0.95000000000000018 0.022499999999999999 0.01125 
0.90000000000000024 0.029999999999999999 0 0.89999999999999991 0.014999999999999999 0 1 0.014999999999999999 0 0.90000000000000024 0.029999999999999999 0.0074999999999999997 0.89999999999999991 0.014999999999999999 0.0074999999999999997 1 0.014999999999999999 0.0074999999999999997 0.90000000000000013 0.022499999999999999 0 0.95000000000000018 0.022499999999999999 0 0.90000000000000024 0.029999999999999999 0.0037499999999999999 0.94999999999999996 0.014999999999999999 0 0.89999999999999991 0.014999999999999999 0.0037499999999999999 1 0.014999999999999999 0.0037499999999999999 0.90000000000000013 0.022499999999999999 0.0074999999999999997 0.95000000000000018 0.022499999999999999 0.0074999999999999997 0.94999999999999996 0.014999999999999999 0.0074999999999999997 0.90000000000000013 0.022499999999999999 0.0037499999999999999 0.95000000000000018 0.022499999999999999 0.0037499999999999999 0.94999999999999996 0.014999999999999999 0.0037499999999999999 
0.90000000000000024 0.029999999999999999 0.0074999999999999997 0.89999999999999991 0.014999999999999999 0.0074999999999999997 1 0.014999999999999999 0.0074999999999999997 0.90000000000000024 0.029999999999999999 0.014999999999999999 0.89999999999999991 0.014999999999999999 0.014999999999999999 1 0.014999999999999999 0.014999999999999999 0.90000000000000013 0.022499999999999999 0.0074999999999999997 0.95000000000000018 0.022499999999999999 0.0074999999999999997 0.90000000000000024 0.029999999999999999 0.01125 0.94999999999999996 0.014999999999999999 0.0074999999999999997 0.89999999999999991 0.014999999999999999 0.01125 1 0.014999999999999999 0.01125 0.90000000000000013 0.022499999999999999 0.014999999999999999 0.95000000000000018 0.022499999999999999 0.014999999999999999 0.94999999999999996 0.014999999999999999 0.014999999999999999 0.90000000000000013 0.022499999999999999 0.01125 0.95000000000000018 0.022499999999999999 0.01125 0.94999999999999996 0.014999999999999999 0.01125 
0.90000000000000024 0.029999999999999999 0 0.80000000000000016 0.029999999999999999 0 0.89999999999999991 0.014999999999999999 0 0.90000000000000024 0.029999999999999999 0.0074999999999999997 0.80000000000000016 0.029999999999999999 0.0074999999999999997 0.89999999999999991 0.014999999999999999 0.0074999999999999997 0.8500000000000002 0.029999999999999999 0 0.90000000000000013 0.022499999999999999 0 0.90000000000000024 0.029999999999999999 0.0037499999999999999 0.85000000000000009 0.022499999999999999 0 0.80000000000000016 0.029999999999999999 0.0037499999999999999 0.89999999999999991 0.014999999999999999 0.0037499999999999999 0.8500000000000002 0.029999999999999999 0.0074999999999999997 0.90000000000000013 0.022499999999999999 0.0074999999999999997 0.85000000000000009 0.022499999999999999 0.0074999999999999997 0.8500000000000002 0.029999999999999999 0.0037499999999999999 0.90000000000000013 0.022499999999999999 0.0037499999999999999 0.85000000000000009 0.022499999999999999 0.0037499999999999999 
0.90000000000000024 0.029999999999999999 0.0074999999999999997 0.80000000000000016 0.029999999999999999 0.0074999999999999997 0.89999999999999991 0.014999999999999999 0.0074999999999999997 0.90000000000000024 0.029999999999999999 0.014999999999999999 0.80000000000000016 0.029999999999999999 0.014999999999999999 0.89999999999999991 0.014999999999999999 0.014999999999999999 0.8500000000000002 0.029999999999999999 0.0074999999999999997 0.90000000000000013 0.022499999999999999 0.0074999999999999997 0.90000000000000024 0.029999999999999999 0.01125 0.85000000000000009 0.022499999999999999 0.0074999999999999997 0.80000000000000016 0.029999999999999999 0.01125 0.89999999999999991 0.014999999999999999 0.01125 0.8500000000000002 0.029999999999999999 0.014999999999999999 0.90000000000000013 0.022499999999999999 0.014999999999999999 0.85000000000000009 0.022499999999999999 0.014999999999999999 0.8500000000000002 0.029999999999999999 0.01125 0.90000000000000013 0.022499999999999999 0.01125 0.85000000000000009 0.022499999999999999 0.01125 
[...]
POINT_DATA 2880

VECTORS u double
0.0032363259196199006 -6.8227284406505194e-06 -0.11864906840700343
-1.0089125466301973e-08 -0.0001578801552050544 -0.12972830129485735
6.0044725981638085e-07 -6.5416026362909643e-06 -0.12964460705025516
0.001609962760128147 -3.4624906266557187e-06 -0.11869826263475548
-1.6203169535112493e-06 -7.9069233425028084e-05 -0.12978363529146492
1.1753825637226116e-06 -3.3279886367375412e-06 -0.12970051062614296
0.001652486410396537 -7.8924300670771679e-05 -0.1268786149355951
0.0016525903327752301 -6.3129052899843473e-06 -0.12685808584805383
0.0024201671543505319 -5.1578499478209037e-06 -0.11867764977573177
2.3890392605770571e-08 -8.2155721941935868e-05 -0.12966684775100606
-1.8941445974887786e-06 -0.00011848786200258446 -0.12976022437553922
1.5003432010920669e-06 -4.8797092612662797e-06 -0.12967688487011336
0.00082638625322837005 -3.9474249353136028e-05 -0.12693344200464912
0.00082565463198969397 -3.103900791894984e-06 -0.12691233620648359
-1.5303303475526175e-07 -4.1163850965792127e-05 -0.12972337182306964
0.0012395455781751606 -5.9273853643018468e-05 -0.12691064764847024
0.0012387032298415417 -4.6729822760467313e-06 -0.12688977775883961
-8.0469824320704146e-08 -6.1649271836290937e-05 -0.12969977035170152
0.001609962760128147 -3.4624906266557187e-06 -0.11869826263475548
-1.6203169535112493e-06 -7.9069233425028084e-05 -0.12978363529146492
1.1753825637226116e-06 -3.3279886367375412e-06 -0.12970051062614296
-6.938284283164721e-13 1.0257623409861203e-09 -0.11871466620540214
1.3802960021395402e-14 1.1301439265517362e-09 -0.12980259934831564
-7.5405801743913844e-13 1.1309557736650656e-09 -0.12971958036029352
0.00082638625322837005 -3.9474249353136028e-05 -0.12693344200464912
0.00082565463198969397 -3.103900791894984e-06 -0.12691233620648359
0.0008039507313018369 -1.7364932790768141e-06 -0.11871056656634393
-1.5303303475526175e-07 -4.1163850965792127e-05 -0.12972337182306964
-8.8196871281777451e-07 -3.955185984965376e-05 -0.12979782969564158
6.073148820903623e-07 -1.6799856401638799e-06 -0.12971479243228354
7.6228891645133434e-12 1.1043930907142519e-09 -0.12695155934729566
-4.744134514768847e-13 1.1043384770260268e-09 -0.12693036107963201
-1.7439472897370213e-13 1.1311949678707905e-09 -0.12974235148026078
0.00041317742439202524 -1.973006837294458e-05 -0.12694704121366057
0.00041279456360167826 -1.5454873737681701e-06 -0.12692586113754276
-1.0144008356258593e-07 -2.0602368009212215e-05 -0.12973759445170169
-1.0089125466301973e-08 -0.0001578801552050544 -0.12972830129485735
0.0032363259196199006 -6.8227284406505194e-06 -0.11864906840700343
0.0032347319172343555 -0.00013661076451155823 -0.11872699155117067
-1.6203169535112493e-06 -7.9069233425028084e-05 -0.12978363529146492
0.001609962760128147 -3.4624906266557187e-06 -0.11869826263475548
0.0016057032794524995 -6.8186390973804886e-05 -0.11877201315092331
0.001652486410396537 -7.8924300670771679e-05 -0.1268786149355951
0.0016516750763825492 -0.00015096381968249448 -0.12693478164832861
-1.8941445974887786e-06 -0.00011848786200258446 -0.12976022437553922
0.0032360966145333833 -7.2170785121472076e-05 -0.11867112727075305
0.0024201671543505319 -5.1578499478209037e-06 -0.11867764977573177
0.0024150197933035362 -0.00010237256268711015 -0.11875265798686796
0.00082638625322837005 -3.9474249353136028e-05 -0.12693344200464912
0.0008267276327439206 -7.5791915557062273e-05 -0.12699054438217705
0.00160817044048874 -3.5763385017370887e-05 -0.11871921741655977
0.0012395455781751606 -5.9273853643018468e-05 -0.12691064764847024
0.0012399159962540411 -0.00011365384246653428 -0.12696762214173088
0.0024180904300244192 -5.3596599288224948e-05 -0.11869914788500997
-1.6203169535112493e-06 -7.9069233425028084e-05 -0.12978363529146492
0.001609962760128147 -3.4624906266557187e-06 -0.11869826263475548
0.0016057032794524995 -6.8186390973804886e-05 -0.11877201315092331
1.3802960021395402e-14 1.1301439265517362e-09 -0.12980259934831564
-6.938284283164721e-13 1.0257623409861203e-09 -0.11871466620540214
2.9925609176015606e-11 1.0255621880520829e-09 -0.118787994092211
0.00082638625322837005 -3.9474249353136028e-05 -0.12693344200464912
0.0008267276327439206 -7.5791915557062273e-05 -0.12699054438217705
-8.8196871281777451e-07 -3.955185984965376e-05 -0.12979782969564158
0.00160817044048874 -3.5763385017370887e-05 -0.11871921741655977
0.0008039507313018369 -1.7364932790768141e-06 -0.11871056656634393
0.0008016692973323949 -3.4101856120646243e-05 -0.11878394712601983
7.6228891645133434e-12 1.1043930907142519e-09 -0.12695155934729566
1.5635154520880838e-11 1.1039262019022128e-09 -0.12700865664357322
1.5059620103875023e-11 1.0258952695750636e-09 -0.11873537350611571
0.00041317742439202524 -1.973006837294458e-05 -0.1269470412136606
0.00041336168762449505 -3.7890394312323134e-05 -0.12700415429375886
0.00080298495024286039 -1.7889151305891123e-05 -0.11873132434805277
0 0 0
0.0041830424918751644 0.00014979528868177671 -0.014680898052234482
0 0 0
0 0 0
0.0020794756907493903 6.8005915138209973e-05 -0.014670291249419766
0 0 0
0.0021839808942253191 0.00017839437744076437 -0.0039024665963612458
0 0 0
0 0 0
0.0021848499065079503 9.7410997214874198e-05 -0.0039503278133748519
0.0031273564422923117 0.00010450118323367152 -0.014676360039402826
0 0 0
0.001080305997102947 9.5555261432738253e-05 -0.0037984208297837576
0 0 0
0.0010832906145715158 5.1160111064726295e-05 -0.0038637882372285384
0.0016274067904701176 0.00014157752096422447 -0.0038403966858540188
0 0 0
0.0016309893474917103 7.4581381210473368e-05 -0.0039000786368056308
0 0 0
0.0020794756907493903 6.8005915138209973e-05 -0.014670291249419766
0 0 0
0 0 0
3.3415261514144479e-11 1.1749587955544047e-10 -0.014663615323333061
0 0 0
0.001080305997102947 9.5555261432738253e-05 -0.0037984208297837576
0 0 0
0 0 0
0.0010832906145715158 5.1160111064726295e-05 -0.0038637882372285384
0.0010381389361976165 3.3629404219858031e-05 -0.014665405498371909
0 0 0
1.7513537492019477e-11 3.140680251965019e-11 -0.0037656508905891273
0 0 0
8.645100624581476e-12 3.047021211507184e-11 -0.0038343425676315135
0.00053879271590912957 4.8216872005986259e-05 -0.0037737588347022256
0 0 0
0.00054042760973948851 2.5831173122774956e-05 -0.0038417144285223148
0.0041830424918751644 0.00014979528868177671 -0.014680898052234482
0.0041810701166079241 -1.0620755916297544e-05 -0.014764688984149562
0 0 0
0.0020794756907493903 6.8005915138209973e-05 -0.014670291249419766
0.002075687690361401 -6.0269168140409473e-06 -0.014738410573810101
0 0 0
0.004183894836473339 6.6969409043755792e-05 -0.014757342696190865
0.0021848499065079503 9.7410997214874198e-05 -0.0039503278133748519
0.0031273564422923117 0.00010450118323367152 -0.014676360039402826
0.0021878161294430955 1.1035447235387869e-05 -0.003976930763705349
0.003123033462018962 -8.0444051855910656e-06 -0.014751128952141781
0 0 0
0.0020767065948718213 3.0197756413782371e-05 -0.014720197024615089
0.0010832906145715158 5.1160111064726295e-05 -0.0038637882372285384
0.0010850909925480044 6.9772674758874618e-06 -0.0038887785857948253
0.0031239976060987253 4.7339459241775395e-05 -0.014735444229820876
0.0016309893474917103 7.4581381210473368e-05 -0.0039000786368056308
0.0016331664098322852 9.6044768281485547e-06 -0.0039252614198989127
0.0020794756907493903 6.8005915138209973e-05 -0.014670291249419766
0.002075687690361401 -6.0269168140409473e-06 -0.014738410573810101
0 0 0
3.3415261514144479e-11 1.1749587955544047e-10 -0.014663615323333061
-9.9134244447544173e-13 1.1666652113319562e-10 -0.014726716584227889
0 0 0
0.0020767065948718213 3.0197756413782371e-05 -0.014720197024615089
0.0010832906145715158 5.1160111064726295e-05 -0.0038637882372285384
0.0010381389361976165 3.3629404219858031e-05 -0.014665405498371909
0.0010850909925480044 6.9772674758874618e-06 -0.0038887785857948253
0.0010360189008215412 -3.2887279317198312e-06 -0.014729734580412747
0 0 0
1.6482190843852701e-11 1.1740336095739611e-10 -0.014708601907242465
8.645100624581476e-12 3.047021211507184e-11 -0.0038343425676315135
1.5231944203235136e-14 3.0364027730491727e-11 -0.0038598188548429444
0.0010365943823493322 1.4830144519636106e-05 -0.014711492496180964
0.00054042760973948851 2.5831173122774956e-05 -0.0038417144285223148
0.00054147668901983342 3.7034515007264231e-06 -0.0038670194006874621
0.0041830424918751644 0.00014979528868177671 -0.014680898052234482
0.005994307151614817 1.6621903162024297e-05 -0.049725365059002255
0.0041810701166079241 -1.0620755916297544e-05 -0.014764688984149562
0.0020794756907493903 6.8005915138209973e-05 -0.014670291249419766
0.0029749912123759746 9.0247710921709822e-06 -0.04971373144784301
0.002075687690361401 -6.0269168140409473e-06 -0.014738410573810101
0.005256220859952772 8.1846283277946295e-05 -0.030700483219405501
0.004183894836473339 6.6969409043755792e-05 -0.014757342696190865
0.0031273564422923117 0.00010450118323367152 -0.014676360039402826
0.0052588437349469844 3.6258022566661028e-05 -0.030733429914666616
0.0044759005976403466 1.2780152176724148e-05 -0.049718508120707147
0.003123033462018962 -8.0444051855910656e-06 -0.014751128952141781
0.0026251184525435027 3.8782356855720859e-05 -0.03067282803820584
0.0020767065948718213 3.0197756413782371e-05 -0.014720197024615089
0.0026287080113266146 1.8318069155492764e-05 -0.030702329437449667
0.0039393343767830857 5.8069516387024174e-05 -0.030685098050623388
0.0031239976060987253 4.7339459241775395e-05 -0.014735444229820876
0.0039441503540715564 2.7970134130556178e-05 -0.030715471298579957
0.0020794756907493903 6.8005915138209973e-05 -0.014670291249419766
0.0029749912123759746 9.0247710921709822e-06 -0.04971373144784301
0.002075687690361401 -6.0269168140409473e-06 -0.014738410573810101
3.3415261514144479e-11 1.1749587955544047e-10 -0.014663615323333061
5.0866955962129405e-11 4.0745191705527227e-10 -0.04971035842154721
-9.9134244447544173e-13 1.1666652113319562e-10 -0.014726716584227889
0.0026251184525435027 3.8782356855720859e-05 -0.03067282803820584
0.0020767065948718213 3.0197756413782371e-05 -0.014720197024615089
0.0010381389361976165 3.3629404219858031e-05 -0.014665405498371909
0.0026287080113266146 1.8318069155492764e-05 -0.030702329437449667
0.0014849370620749094 4.5348860596418027e-06 -0.049711188209007294
0.0010360189008215412 -3.2887279317198312e-06 -0.014729734580412747
4.3083018932595604e-11 2.4809184444257376e-10 -0.030662629166754489
1.6482190843852701e-11 1.1740336095739611e-10 -0.014708601907242465
2.1191199381347821e-11 2.4775015837733332e-10 -0.030691797061769926
0.001312217291542832 1.9273383695501261e-05 -0.030665216798695834
0.0010365943823493322 1.4830144519636106e-05 -0.014711492496180964
0.0013141058701404715 9.166501873959849e-06 -0.030694426440186363
0.005994307151614817 1.6621903162024297e-05 -0.049725365059002255
0.0055021712741292811 -7.5395529849328399e-05 -0.088981427048991674
0.0059973180028895417 -7.9741675401719098e-06 -0.049722915415862046
0.0029749912123759746 9.0247710921709822e-06 -0.04971373144784301
0.0027314886909249117 -3.7134697210965354e-05 -0.08900149223420234
0.002977408648440108 -4.4020389329405748e-06 -0.049715555025968527
0.0058929086297899039 -2.8227291066107776e-05 -0.069763875444809137
0.0059983980089721462 3.087862612987848e-06 -0.049727887119850309
0.0044759005976403466 1.2780152176724148e-05 -0.049718508120707147
0.0058957495633728809 -1.953551001150699e-05 -0.069755638992818531
0.0041085378801097409 -5.6051835737410282e-05 -0.088992470581280625
0.0044788484322681819 -6.3580897043655287e-06 -0.049719051246522102
0.0029465204018660745 -1.541567846803339e-05 -0.069775665927095235
0.0029770011731800822 2.2727400530012424e-06 -0.049717976903317779
0.0029484416104384238 -9.9435390559437519e-06 -0.069764068708987118
0.0044200517518595481 -2.2924986607407909e-05 -0.069771388710160642
0.0044785813536960999 3.3622733335177579e-06 -0.04972196058698225
0.0044227268329309248 -1.5026381751829812e-05 -0.069760751125255163
0.0029749912123759746 9.0247710921709822e-06 -0.04971373144784301
0.0027314886909249117 -3.7134697210965354e-05 -0.08900149223420234
0.002977408648440108 -4.4020389329405748e-06 -0.049715555025968527
5.0866955962129405e-11 4.0745191705527227e-10 -0.04971035842154721
4.9267895280455058e-11 7.5167187503930838e-10 -0.089009345219560346
-6.1040982009112995e-14 4.0698222465269251e-10 -0.049712473658964404
0.0029465204018660745 -1.541567846803339e-05 -0.069775665927095235
0.0029770011731800822 2.2727400530012424e-06 -0.049717976903317779
0.0014849370620749094 4.5348860596418027e-06 -0.049711188209007294
0.0029484416104384238 -9.9435390559437519e-06 -0.069764068708987118
0.0013636353229706532 -1.8556777120041894e-05 -0.08900731759796221
0.0014862888947906824 -2.2421456972372177e-06 -0.049713275678122316
5.1270963658149926e-11 5.8078443213956926e-10 -0.069778631858184045
2.5314709804438324e-11 4.0735604465367973e-10 -0.049714812796064121
2.568320016919723e-11 5.8104112356301433e-10 -0.069766737575857815
0.0014731500302610976 -7.7229098893903221e-06 -0.069777941651960024
0.0014860076397799362 1.1492508132067931e-06 -0.049715594045601566
0.0014741427852213859 -4.9573428017296999e-06 -0.069766077180474076
0.0041810701166079241 -1.0620755916297544e-05 -0.014764688984149562
0.005994307151614817 1.6621903162024297e-05 -0.049725365059002255
0.0059973180028895417 -7.9741675401719098e-06 -0.049722915415862046
0.002075687690361401 -6.0269168140409473e-06 -0.014738410573810101
0.0029749912123759746 9.0247710921709822e-06 -0.04971373144784301
0.002977408648440108 -4.4020389329405748e-06 -0.049715555025968527
0.0052588437349469844 3.6258022566661028e-05 -0.030733429914666616
0.0052598369699401824 -4.2463624369687095e-06 -0.030741770172897521
0.003123033462018962 -8.0444051855910656e-06 -0.014751128952141781
0.0059983980089721462 3.087862612987848e-06 -0.049727887119850309
0.0044759005976403466 1.2780152176724148e-05 -0.049718508120707147
0.0044788484322681819 -6.3580897043655287e-06 -0.049719051246522102
0.0026287080113266146 1.8318069155492764e-05 -0.030702329437449667
0.0026299367721849243 -2.3325619636885202e-06 -0.030710249760559562
0.0029770011731800822 2.2727400530012424e-06 -0.049717976903317779
0.0039441503540715564 2.7970134130556178e-05 -0.030715471298579964
0.0039452652745892366 -3.9701908188303024e-06 -0.030723192991539187
0.0044785813536960999 3.3622733335177579e-06 -0.04972196058698225
0.002075687690361401 -6.0269168140409473e-06 -0.014738410573810101
0.0029749912123759746 9.0247710921709822e-06 -0.04971373144784301
0.002977408648440108 -4.4020389329405748e-06 -0.049715555025968527
-9.9134244447544173e-13 1.1666652113319562e-10 -0.014726716584227889
5.0866955962129405e-11 4.0745191705527227e-10 -0.04971035842154721
-6.1040982009112995e-14 4.0698222465269251e-10 -0.049712473658964404
0.0026287080113266146 1.8318069155492764e-05 -0.030702329437449667
0.0026299367721849243 -2.3325619636885202e-06 -0.030710249760559562
0.0010360189008215412 -3.2887279317198312e-06 -0.014729734580412747
0.0029770011731800822 2.2727400530012424e-06 -0.049717976903317779
0.0014849370620749094 4.5348860596418027e-06 -0.049711188209007294
0.0014862888947906824 -2.2421456972372177e-06 -0.049713275678122316
2.1191199381347821e-11 2.4775015837733332e-10 -0.030691797061769926
-1.9463333387420773e-14 2.4724514149045809e-10 -0.030699859762909391
2.5314709804438324e-11 4.0735604465367973e-10 -0.049714812796064121
0.0013141058701404715 9.166501873959849e-06 -0.030694426440186363
0.0013147950726425288 -1.1904617868995254e-06 -0.030702454782197765
0.0014860076397799362 1.1492508132067931e-06 -0.049715594045601566
0.0055047901531690554 -7.858359569480278e-06 -0.088929246510177168
0.0055021712741292811 -7.5395529849328399e-05 -0.088981427048991674
0.0032347319172343555 -0.00013661076451155823 -0.11872699155117067
0.0027357748649778288 -3.9496715815536544e-06 -0.088956894380922039
0.0027314886909249117 -3.7134697210965354e-05 -0.08900149223420234
0.0016057032794524995 -6.8186390973804886e-05 -0.11877201315092331
0.0055047135135775412 -4.2435701443726009e-05 -0.088946731990172126
0.0044675162408309224 -5.8328054039442613e-05 -0.10571039764708595
0.00411373174061284 -5.9208154119456532e-06 -0.088945620838364603
0.0044654726038609194 -0.0001075991613123062 -0.10574884546580708
0.0041085378801097409 -5.6051835737410282e-05 -0.088992470581280625
0.0024150197933035362 -0.00010237256268711015 -0.11875265798686796
0.0027342826088190492 -2.0450785355561171e-05 -0.088971040709204405
0.0022342112525276102 -2.9249990265692594e-05 -0.10574877490621651
0.0022334212321396042 -5.467439049583666e-05 -0.10578988934796411
0.0041120791487886986 -3.071702984558731e-05 -0.088960838892024163
0.0033512910285930118 -4.3979531405717295e-05 -0.10573286950337958
0.0033501238627751256 -8.1908297237020427e-05 -0.1057733630474966
0.0027357748649778288 -3.9496715815536544e-06 -0.088956894380922039
0.0027314886909249117 -3.7134697210965354e-05 -0.08900149223420234
0.0016057032794524995 -6.8186390973804886e-05 -0.11877201315092331
-7.3640461689124662e-13 7.5150753984954869e-10 -0.088965554994968374
4.9267895280455058e-11 7.5167187503930838e-10 -0.089009345219560346
2.9925609176015606e-11 1.0255621880520829e-09 -0.118787994092211
0.0027342826088190492 -2.0450785355561171e-05 -0.088971040709204405
0.0022342112525276102 -2.9249990265692594e-05 -0.10574877490621651
0.0013659579242816166 -1.9801032290780537e-06 -0.088963418405926295
0.0022334212321396042 -5.467439049583666e-05 -0.10578988934796411
0.0013636353229706532 -1.8556777120041894e-05 -0.08900731759796221
0.0008016692973323949 -3.4101856120646243e-05 -0.11878394712601983
2.4316171361661293e-11 7.5184584969573729e-10 -0.08897931288745449
1.997231767659646e-11 9.0491525319218051e-10 -0.10576143714985371
4.0644867450970062e-11 9.0498304108851934e-10 -0.10580268441789768
0.0013651305669911868 -1.021945619911385e-05 -0.088977235569111968
0.0011170598712024495 -1.4609671542448962e-05 -0.10575827946062383
0.0011166532148481449 -2.7337601507681371e-05 -0.10579953021870216
0.0059973180028895417 -7.9741675401719098e-06 -0.049722915415862046
0.0055021712741292811 -7.5395529849328399e-05 -0.088981427048991674
0.0055047901531690554 -7.858359569480278e-06 -0.088929246510177168
0.002977408648440108 -4.4020389329405748e-06 -0.049715555025968527
0.0027314886909249117 -3.7134697210965354e-05 -0.08900149223420234
0.0027357748649778288 -3.9496715815536544e-06 -0.088956894380922039
0.0058957495633728809 -1.953551001150699e-05 -0.069755638992818531
0.0058961831171580699 -8.428992921005007e-06 -0.069752082970077595
0.0044788484322681819 -6.3580897043655287e-06 -0.049719051246522102
0.0055047135135775412 -4.2435701443726009e-05 -0.088946731990172126
0.0041085378801097409 -5.6051835737410282e-05 -0.088992470581280625
0.00411373174061284 -5.9208154119456532e-06 -0.088945620838364603
0.0029484416104384238 -9.9435390559437519e-06 -0.069764068708987118
0.0029487186299799561 -4.2359794640908737e-06 -0.069757683791804595
0.0027342826088190492 -2.0450785355561171e-05 -0.088971040709204405
0.0044227268329309248 -1.5026381751829812e-05 -0.069760751125255163
0.0044230061608746263 -6.3223855683540191e-06 -0.069754837573680964
0.0041120791487886986 -3.071702984558731e-05 -0.088960838892024163
0.002977408648440108 -4.4020389329405748e-06 -0.049715555025968527
0.0027314886909249117 -3.7134697210965354e-05 -0.08900149223420234
0.0027357748649778288 -3.9496715815536544e-06 -0.088956894380922039
-6.1040982009112995e-14 4.0698222465269251e-10 -0.049712473658964404
4.9267895280455058e-11 7.5167187503930838e-10 -0.089009345219560346
-7.3640461689124662e-13 7.5150753984954869e-10 -0.088965554994968374
0.0029484416104384238 -9.9435390559437519e-06 -0.069764068708987118
0.0029487186299799561 -4.2359794640908737e-06 -0.069757683791804595
0.0014862888947906824 -2.2421456972372177e-06 -0.049713275678122316
0.0027342826088190492 -2.0450785355561171e-05 -0.088971040709204405
0.0013636353229706532 -1.8556777120041894e-05 -0.08900731759796221
0.0013659579242816166 -1.9801032290780537e-06 -0.088963418405926295