# vtk DataFile Version 4.2
u
ASCII
DATASET UNSTRUCTURED_GRID

POINTS 2880 double
0.59999999999999976 0.014999999999999999 0 0.5 0.029999999999999999 0 0.5 0.014999999999999999 0 0.59999999999999976 0.014999999999999999 0.0074999999999999997 0.5 0.029999999999999999 0.0074999999999999997 0.5 0.014999999999999999 0.0074999999999999997 0.54999999999999982 0.022499999999999999 0 0.54999999999999982 0.014999999999999999 0 0.59999999999999976 0.014999999999999999 0.0037499999999999999 0.5 0.022499999999999999 0 0.5 0.029999999999999999 0.0037499999999999999 0.5 0.014999999999999999 0.0037499999999999999 0.54999999999999982 0.022499999999999999 0.0074999999999999997 0.54999999999999982 0.014999999999999999 0.0074999999999999997 0.5 0.022499999999999999 0.0074999999999999997 0.54999999999999982 0.022499999999999999 0.0037499999999999999 0.54999999999999982 0.014999999999999999 0.0037499999999999999 0.5 0.022499999999999999 0.0037499999999999999 
0.59999999999999976 0.014999999999999999 0.0074999999999999997 0.5 0.029999999999999999 0.0074999999999999997 0.5 0.014999999999999999 0.0074999999999999997 0.59999999999999976 0.014999999999999999 0.014999999999999999 0.5 0.029999999999999999 0.014999999999999999 0.5 0.014999999999999999 0.014999999999999999 0.54999999999999982 0.022499999999999999 0.0074999999999999997 0.54999999999999982 0.014999999999999999 0.0074999999999999997 0.59999999999999976 0.014999999999999999 0.01125 0.5 0.022499999999999999 0.0074999999999999997 0.5 0.029999999999999999 0.01125 0.5 0.014999999999999999 0.01125 0.54999999999999982 0.022499999999999999 0.014999999999999999 0.54999999999999982 0.014999999999999999 0.014999999999999999 0.5 0.022499999999999999 0.014999999999999999 0.54999999999999982 0.022499999999999999 0.01125 0.54999999999999982 0.014999999999999999 0.01125 0.5 0.022499999999999999 0.01125 
0.5 0.029999999999999999 0 0.59999999999999976 0.014999999999999999 0 0.60000000000000009 0.029999999999999999 0 0.5 0.029999999999999999 0.0074999999999999997 0.59999999999999976 0.014999999999999999 0.0074999999999999997 0.60000000000000009 0.029999999999999999 0.0074999999999999997 0.54999999999999982 0.022499999999999999 0 0.55000000000000004 0.029999999999999999 0 0.5 0.029999999999999999 0.0037499999999999999 0.59999999999999987 0.022499999999999999 0 0.59999999999999976 0.014999999999999999 0.0037499999999999999 0.60000000000000009 0.029999999999999999 0.0037499999999999999 0.54999999999999982 0.022499999999999999 0.0074999999999999997 0.55000000000000004 0.029999999999999999 0.0074999999999999997 0.59999999999999987 0.022499999999999999 0.0074999999999999997 0.54999999999999982 0.022499999999999999 0.0037499999999999999 0.55000000000000004 0.029999999999999999 0.0037499999999999999 0.59999999999999987 0.022499999999999999 0.0037499999999999999 
0.5 0.029999999999999999 0.0074999999999999997 0.59999999999999976 0.014999999999999999 0.0074999999999999997 0.60000000000000009 0.029999999999999999 0.0074999999999999997 0.5 0.029999999999999999 0.014999999999999999 0.59999999999999976 0.014999999999999999 0.014999999999999999 0.60000000000000009 0.029999999999999999 0.014999999999999999 0.54999999999999982 0.022499999999999999 0.0074999999999999997 0.55000000000000004 0.029999999999999999 0.0074999999999999997 0.5 0.029999999999999999 0.01125 0.59999999999999987 0.022499999999999999 0.0074999999999999997 0.59999999999999976 0.014999999999999999 0.01125 0.60000000000000009 0.029999999999999999 0.01125 0.54999999999999982 0.022499999999999999 0.014999999999999999 0.55000000000000004 0.029999999999999999 0.014999999999999999 0.59999999999999987 0.022499999999999999 0.014999999999999999 0.54999999999999982 0.022499999999999999 0.01125 0.55000000000000004 0.029999999999999999 0.01125 0.59999999999999987 0.022499999999999999 0.01125 
1 0.029999999999999999 0 0.90000000000000024 0.029999999999999999 0 1 0.014999999999999999 0 1 0.029999999999999999 0.0074999999999999997 0.90000000000000024 0.029999999999999999 0.0074999999999999997 1 0.014999999999999999 0.0074999999999999997 0.95000000000000018 0.029999999999999999 0 1 0.022499999999999999 0 1 0.029999999999999999 0.0037499999999999999 0.95000000000000018 0.022499999999999999 0 0.90000000000000024 0.029999999999999999 0.0037499999999999999 1 0.014999999999999999 0.0037499999999999999 0.95000000000000018 0.029999999999999999 0.0074999999999999997 1 0.022499999999999999 0.0074999999999999997 0.95000000000000018 0.022499999999999999 0.0074999999999999997 0.95000000000000018 0.029999999999999999 0.0037499999999999999 1 0.022499999999999999 0.0037499999999999999 0.95000000000000018 0.022499999999999999 0.0037499999999999999 
1 0.029999999999999999 0.0074999999999999997 0.90000000000000024 0.029999999999999999 0.0074999999999999997 1 0.014999999999999999 0.0074999999999999997 1 0.029999999999999999 0.014999999999999999 0.90000000000000024 0.029999999999999999 0.014999999999999999 1 0.014999999999999999 0.014999999999999999 0.95000000000000018 0.029999999999999999 0.0074999999999999997 1 0.022499999999999999 0.0074999999999999997 1 0.029999999999999999 0.01125 0.95000000000000018 0.022499999999999999 0.0074999999999999997 0.90000000000000024 0.029999999999999999 0.01125 1 0.014999999999999999 0.01125 0.95000000000000018 0.029999999999999999 0.014999999999999999 1 0.022499999999999999 0.014999999999999999 0.95000000000000018 0.022499999999999999 0.014999999999999999 0.95000000000000018 0.029999999999999999 0.01125 1 0.022499999999999999 0.01125 0.95000000000000018 0.022499999999999999 0.01125 
0.90000000000000024 0.029999999999999999 0 0.89999999999999991 0.014999999999999999 0 1 0.014999999999999999 0 0.90000000000000024 0.029999999999999999 0.0074999999999999997 0.89999999999999991 0.014999999999999999 0.0074999999999999997 1 0.014999999999999999 0.0074999999999999997 0.90000000000000013 0.022499999999999999 0 0.95000000000000018 0.022499999999999999 0 0.90000000000000024 0.029999999999999999 0.0037499999999999999 0.94999999999999996 0.014999999999999999 0 0.89999999999999991 0.014999999999999999 0.0037499999999999999 1 0.014999999999999999 0.0037499999999999999 0.90000000000000013 0.022499999999999999 0.0074999999999999997 0.95000000000000018 0.022499999999999999 0.0074999999999999997 0.94999999999999996 0.014999999999999999 0.0074999999999999997 0.90000000000000013 0.022499999999999999 0.0037499999999999999 0.95000000000000018 0.022499999999999999 0.0037499999999999999 0.94999999999999996 0.014999999999999999 0.0037499999999999999 
0.90000000000000024 0.029999999999999999 0.0074999999999999997 0.89999999999999991 0.014999999999999999 0.0074999999999999997 1 0.014999999999999999 0.0074999999999999997 0.90000000000000024 0.029999999999999999 0.014999999999999999 0.89999999999999991 0.014999999999999999 0.014999999999999999 1 0.014999999999999999 0.014999999999999999 0.90000000000000013 0.022499999999999999 0.0074999999999999997 0.95000000000000018 0.022499999999999999 0.0074999999999999997 0.90000000000000024 0.029999999999999999 0.01125 0.94999999999999996 0.014999999999999999 0.0074999999999999997 0.89999999999999991 0.014999999999999999 0.01125 1 0.014999999999999999 0.01125 0.90000000000000013 0.022499999999999999 0.014999999999999999 0.95000000000000018 0.022499999999999999 0.014999999999999999 0.94999999999999996 0.014999999999999999 0.014999999999999999 0.90000000000000013 0.022499999999999999 0.01125 0.95000000000000018 0.022499999999999999 0.01125 0.94999999999999996 0.014999999999999999 0.01125 
0.90000000000000024 0.029999999999999999 0 0.80000000000000016 0.029999999999999999 0 0.89999999999999991 0.014999999999999999 0 0.90000000000000024 0.029999999999999999 0.0074999999999999997 0.80000000000000016 0.029999999999999999 0.0074999999999999997 0.89999999999999991 0.014999999999999999 0.0074999999999999997 0.8500000000000002 0.029999999999999999 0 0.90000000000000013 0.022499999999999999 0 0.90000000000000024 0.029999999999999999 0.0037499999999999999 0.85000000000000009 0.022499999999999999 0 0.80000000000000016 0.029999999999999999 0.0037499999999999999 0.89999999999999991 0.014999999999999999 0.0037499999999999999 0.8500000000000002 0.029999999999999999 0.0074999999999999997 0.90000000000000013 0.022499999999999999 0.0074999999999999997 0.85000000000000009 0.022499999999999999 0.0074999999999999997 0.8500000000000002 0.029999999999999999 0.0037499999999999999 0.90000000000000013 0.022499999999999999 0.0037499999999999999 0.85000000000000009 0.022499999999999999 0.0037499999999999999 
0.90000000000000024 0.029999999999999999 0.0074999999999999997 0.80000000000000016 0.029999999999999999 0.0074999999999999997 0.89999999999999991 0.014999999999999999 0.0074999999999999997 0.90000000000000024 0.029999999999999999 0.014999999999999999 0.80000000000000016 0.029999999999999999 0.014999999999999999 0.89999999999999991 0.014999999999999999 0.014999999999999999 0.8500000000000002 0.029999999999999999 0.0074999999999999997 0.90000000000000013 0.022499999999999999 0.0074999999999999997 0.90000000000000024 0.029999999999999999 0.01125 0.85000000000000009 0.022499999999999999 0.0074999999999999997 0.80000000000000016 0.029999999999999999 0.01125 0.89999999999999991 0.014999999999999999 0.01125 0.8500000000000002 0.029999999999999999 0.014999999999999999 0.90000000000000013 0.022499999999999999 0.014999999999999999 0.85000000000000009 0.022499999999999999 0.014999999999999999 0.8500000000000002 0.029999999999999999 0.01125 0.90000000000000013 0.022499999999999999 0.01125 0.85000000000000009 0.022499999999999999 0.01125 
[...]
POINT_DATA 2880

VECTORS u double
-5.6111031403483365e-07 -0.11879315394266886 -5.811148015905196e-08
5.8182919991590405e-07 -0.12977936496283754 -0.00014786298902771483
-2.6539900508205745e-07 -0.12985361902280507 1.1906245939340023e-06
-5.8962738226983171e-07 -0.11874670340924062 -1.7025800994242518e-08
9.8668608011628187e-07 -0.12972273814399671 -7.4363693226647845e-05
-4.4925762482008549e-07 -0.12979823775625479 3.8563856191383703e-07
-0.00082777013025140983 -0.12704732185296608 -7.429812371716432e-05
-8.1902177952937847e-07 -0.12706605527447953 -2.3442246457452953e-08
-5.7742150274992013e-07 -0.11876564415544115 -3.5777589347790242e-08
3.4233883304449176e-07 -0.12983457956538957 -7.3830509681615817e-05
9.3483447872821482e-07 -0.12974591160048829 -0.00011121957528515627
-3.6282729323592308e-07 -0.12982114632073752 7.3699654619195266e-07
-0.00082806404953875872 -0.12699104581502696 -3.7406785178357899e-05
-7.332309263544731e-07 -0.1270099223480021 1.8982882257244674e-08
2.7724933567420063e-07 -0.12977901969532538 -3.6853514912169307e-05
-0.00082786451013673699 -0.1270143115205154 -5.6034790956505945e-05
-7.4546924735808925e-07 -0.12703325944755228 2.9610859217512804e-08
2.6170252758918222e-07 -0.12980224701605045 -5.5230849751061059e-05
-5.8962738226983171e-07 -0.11874670340924062 -1.7025800994242518e-08
9.8668608011628187e-07 -0.12972273814399671 -7.4363693226647845e-05
-4.4925762482008549e-07 -0.12979823775625479 3.8563856191383703e-07
-5.9063829191387115e-07 -0.11873119997557899 3.4500471390648269e-11
9.867391899775823e-07 -0.12970414167379116 3.7658452290265523e-11
-4.9623503894934749e-07 -0.12977958814212762 3.7634155086153353e-11
-0.00082806404953875872 -0.12699104581502696 -3.7406785178357899e-05
-7.332309263544731e-07 -0.1270099223480021 1.8982882257244674e-08
-5.9053278239129779e-07 -0.11873506515813906 -7.9451051107982785e-09
2.7724933567420063e-07 -0.12977901969532538 -3.6853514912169307e-05
9.935250409207446e-07 -0.12970876782756627 -3.7226022931329388e-05
-4.8525819554492044e-07 -0.12978424253280832 1.6710339434922812e-07
-0.0008281928492823485 -0.12697246347492469 3.6862910545421075e-11
-7.2690348311569518e-07 -0.12699134060627673 3.6856347436136213e-11
2.686593887897159e-07 -0.12976042242652974 3.7640882643569675e-11
-0.00082815980500312847 -0.1269770906949052 -1.8706436443611727e-05
-7.2727843804172382e-07 -0.1269959805005256 1.1064322708410932e-08
2.6983208415492679e-07 -0.12976508345704341 -1.84479621186929e-05
5.8182919991590405e-07 -0.12977936496283754 -0.00014786298902771483
-5.6111031403483365e-07 -0.11879315394266886 -5.811148015905196e-08
-0.0032617527936563773 -0.11873287706496265 -0.00012038855762913236
9.8668608011628187e-07 -0.12972273814399671 -7.4363693226647845e-05
-5.8962738226983171e-07 -0.11874670340924062 -1.7025800994242518e-08
-0.0032627515407681103 -0.11868618199736942 -6.1332754392265008e-05
-0.00082777013025140983 -0.12704732185296608 -7.429812371716432e-05
-0.0016554285949034494 -0.12699244260975787 -0.00015093348518397157
9.3483447872821482e-07 -0.12974591160048829 -0.00011121957528515627
-0.0016245582337116079 -0.11877820783169681 -6.1437525197284982e-05
-5.7742150274992013e-07 -0.11876564415544115 -3.5777589347790242e-08
-0.0032624461012429212 -0.11870530808863634 -9.1243935245568185e-05
-0.00082806404953875872 -0.12699104581502696 -3.7406785178357899e-05
-0.001656369751957838 -0.126935783519735 -7.481897211655605e-05
-0.0016258950279004305 -0.11873263663502077 -3.0631552722437188e-05
-0.00082786451013673699 -0.1270143115205154 -5.6034790956505952e-05
-0.001656129755914253 -0.12695914721415455 -0.00011257834628399606
-0.001625525396086234 -0.11875193240919414 -4.5913176659116283e-05
9.8668608011628187e-07 -0.12972273814399671 -7.4363693226647845e-05
-5.8962738226983171e-07 -0.11874670340924062 -1.7025800994242518e-08
-0.0032627515407681103 -0.11868618199736942 -6.1332754392265008e-05
9.867391899775823e-07 -0.12970414167379116 3.7658452290265523e-11
-5.9063829191387115e-07 -0.11873119997557899 3.4500471390648269e-11
-0.0032628639191403471 -0.11867072227524939 3.4523362189105149e-11
-0.00082806404953875872 -0.12699104581502696 -3.7406785178357899e-05
-0.001656369751957838 -0.126935783519735 -7.481897211655605e-05
9.935250409207446e-07 -0.12970876782756627 -3.7226022931329388e-05
-0.0016258950279004305 -0.11873263663502077 -3.0631552722437188e-05
-5.9053278239129779e-07 -0.11873506515813906 -7.9451051107982785e-09
-0.0032628441843438353 -0.11867456624647457 -3.0781379535735395e-05
-0.0008281928492823485 -0.12697246347492469 3.6862910545421075e-11
-0.0016564706395089742 -0.12691712114598022 3.6879913692756352e-11
-0.0016261117217070645 -0.11871715014244329 3.4507225491657318e-11
-0.00082815980500312847 -0.1269770906949052 -1.8706436443611727e-05
-0.0016564545223766117 -0.12692177425254136 -3.73369606333865e-05
-0.0016260683203032631 -0.11872104722661504 -1.5338399454214922e-05
0 0 0
-0.0041895450546775726 -0.014620442427712097 0.00012258191672081604
0 0 0
0 0 0
-0.0042018960160489427 -0.01467598281977235 6.5870734901006062e-05
0 0 0
-0.0021650299809733188 -0.0037884032753796285 0.00023398008576995942
0 0 0
0 0 0
-0.0010795267166130659 -0.0037252827532794825 0.00010467318621654447
-0.0041993953703925351 -0.014656152529922349 9.5469868333268587e-05
0 0 0
-0.0021564085606931042 -0.0038780754240499713 0.00010922922540136871
0 0 0
-0.0010786292967225857 -0.0038094593607490295 5.2970385345528737e-05
-0.0021583704383022584 -0.0038429531962766452 0.00016872862159142562
0 0 0
-0.0010794557322166888 -0.0037761517435987123 7.9052996923252298e-05
0 0 0
-0.0042018960160489427 -0.01467598281977235 6.5870734901006062e-05
0 0 0
0 0 0
-0.0042024725079105787 -0.014692923808838841 4.2788509191621278e-12
0 0 0
-0.0021564085606931042 -0.0038780754240499713 0.00010922922540136871
0 0 0
0 0 0
-0.0010786292967225857 -0.0038094593607490295 5.2970385345528737e-05
-0.0042024782909593043 -0.014688827686473015 3.3454441785617097e-05
0 0 0
-0.0021555193853800476 -0.0039044617525847373 1.0993869846420616e-12
0 0 0
-0.001078183356829414 -0.0038348200433760619 1.1193042507245724e-12
-0.0021556617340210125 -0.0038979559462750391 5.3757280341432787e-05
0 0 0
-0.0010783019829132825 -0.0038286615906498469 2.6449828794197582e-05
-0.0041895450546775726 -0.014620442427712097 0.00012258191672081604
4.049357555685093e-06 -0.014549645862030247 2.0452206150274572e-05
0 0 0
-0.0042018960160489427 -0.01467598281977235 6.5870734901006062e-05
9.5500912424558482e-06 -0.014599827964310837 7.5776996245843331e-06
0 0 0
-0.0020781648404373377 -0.014574344173475811 7.1210776290530397e-05
-0.0010795267166130659 -0.0037252827532794825 0.00010467318621654447
-0.0041993953703925351 -0.014656152529922349 9.5469868333268587e-05
-5.2192005570377456e-06 -0.0037074477108474924 -7.2438495694448555e-06
7.7731841026784468e-06 -0.014580350247455725 1.3246069237989247e-05
0 0 0
-0.0020818832965803597 -0.014620105894758033 3.5369199802617166e-05
-0.0010786292967225857 -0.0038094593607490295 5.2970385345528737e-05
-8.1134416416051109e-06 -0.0037870416253019058 -4.3114115638390832e-06
-0.0020804842722399451 -0.014598638789244868 5.3005108226673254e-05
-0.0010794557322166888 -0.0037761517435987123 7.9052996923252298e-05
-6.9440176838068935e-06 -0.0037554960380101095 -6.2195868740385647e-06
-0.0042018960160489427 -0.01467598281977235 6.5870734901006062e-05
9.5500912424558482e-06 -0.014599827964310837 7.5776996245843331e-06
0 0 0
-0.0042024725079105787 -0.014692923808838841 4.2788509191621278e-12
1.0335753770846877e-05 -0.014616254380435375 4.2967088765686098e-12
0 0 0
-0.0020818832965803597 -0.014620105894758033 3.5369199802617166e-05
-0.0010786292967225857 -0.0038094593607490295 5.2970385345528737e-05
-0.0042024782909593043 -0.014688827686473015 3.3454441785617097e-05
-8.1134416416051109e-06 -0.0037870416253019058 -4.3114115638390832e-06
1.0177098407710096e-05 -0.014612190680665181 3.4875980764031416e-06
0 0 0
-0.0020824688668099806 -0.014637080753662044 4.2916919152149394e-12
-0.001078183356829414 -0.0038348200433760619 1.1193042507245724e-12
-8.8165891715665738e-06 -0.0038119062970726767 1.1266253116485732e-12
-0.002082352386515282 -0.014632687979152471 1.7704278073796643e-05
-0.0010783019829132825 -0.0038286615906498469 2.6449828794197582e-05
-8.6517056678782682e-06 -0.00380579603263446 -2.0686783162094046e-06
-0.0041895450546775726 -0.014620442427712097 0.00012258191672081604
-0.0060376621840035737 -0.049556984576401911 4.3400526862396156e-05
4.049357555685093e-06 -0.014549645862030247 2.0452206150274572e-05
-0.0042018960160489427 -0.01467598281977235 6.5870734901006062e-05
-0.0060406591521732118 -0.049573863299629331 1.9816709671815262e-05
9.5500912424558482e-06 -0.014599827964310837 7.5776996245843331e-06
-0.0052281805590981036 -0.030551760797903456 7.377952735960561e-05
-0.0020781648404373377 -0.014574344173475811 7.1210776290530397e-05
-0.0041993953703925351 -0.014656152529922349 9.5469868333268587e-05
-0.0026125661543662409 -0.030519891063825435 4.2675225378717724e-05
-0.0060401023120370016 -0.049567784069558446 3.0974533823936822e-05
7.7731841026784468e-06 -0.014580350247455725 1.3246069237989247e-05
-0.0052310259082840949 -0.030578297990441667 3.8450905707676866e-05
-0.0020818832965803597 -0.014620105894758033 3.5369199802617166e-05
-0.0026152761157785336 -0.030548556954977553 2.0733914825489511e-05
-0.0052299432054378585 -0.030566863351612922 5.6276670607905769e-05
-0.0020804842722399451 -0.014598638789244868 5.3005108226673254e-05
-0.0026142674203266693 -0.030536686260538629 3.1887088643433185e-05
-0.0042018960160489427 -0.01467598281977235 6.5870734901006062e-05
-0.0060406591521732118 -0.049573863299629331 1.9816709671815262e-05
9.5500912424558482e-06 -0.014599827964310837 7.5776996245843331e-06
-0.0042024725079105787 -0.014692923808838841 4.2788509191621278e-12
-0.0060406603992355593 -0.049578071122407523 1.4490811931588147e-11
1.0335753770846877e-05 -0.014616254380435375 4.2967088765686098e-12
-0.0052310259082840949 -0.030578297990441667 3.8450905707676866e-05
-0.0020818832965803597 -0.014620105894758033 3.5369199802617166e-05
-0.0042024782909593043 -0.014688827686473015 3.3454441785617097e-05
-0.0026152761157785336 -0.030548556954977553 2.0733914825489511e-05
-0.0060406998913189337 -0.049577060765963944 9.6956194427040089e-06
1.0177098407710096e-05 -0.014612190680665181 3.4875980764031416e-06
-0.0052318079817524621 -0.030588510731717401 8.9428772415700105e-12
-0.0020824688668099806 -0.014637080753662044 4.2916919152149394e-12
-0.0026160805030759583 -0.030558785075888068 8.9508862794429041e-12
-0.0052316209444904947 -0.030585946715204704 1.9401620140898414e-05
-0.002082352386515282 -0.014632687979152471 1.7704278073796643e-05
-0.0026158906923016653 -0.030556222489366801 1.0280172495734596e-05
-0.0060376621840035737 -0.049556984576401911 4.3400526862396156e-05
-0.0055467258696303562 -0.088886911782970646 -5.3304904706643785e-05
6.5763255752614627e-07 -0.049538952496295599 -2.9371566407575514e-07
-0.0060406591521732118 -0.049573863299629331 1.9816709671815262e-05
-0.0055486733306797922 -0.088864935501098599 -2.8332044301653501e-05
2.1628596270662717e-06 -0.049550624827299883 -2.8663632191057267e-07
-0.0058883043922952905 -0.06964439333988702 -3.1956283258408154e-05
-0.0030033601823266911 -0.049544360463222345 1.9427337751848498e-05
-0.0060401023120370016 -0.049567784069558446 3.0974533823936822e-05
-0.0029434574087818456 -0.069652101755171295 -1.0772703567345051e-05
-0.0055480997943732867 -0.088873957451404445 -4.144946372194452e-05
1.8128056770812408e-06 -0.049545397409053733 -3.8136715686905976e-07
-0.0058918022993829028 -0.069631955923087172 -1.4010803532047587e-05
-0.0030055298879762011 -0.049559503112775995 9.3346557639765497e-06
-0.0029454046587971622 -0.069641345116228826 -6.4241049186434175e-06
-0.0058908922533075321 -0.069636153537625423 -2.2011141169783725e-05
-0.003004761163675158 -0.049553847914100758 1.4028636445390947e-05
-0.0029445288070957913 -0.06964549023256994 -8.9769113407538132e-06
-0.0060406591521732118 -0.049573863299629331 1.9816709671815262e-05
-0.0055486733306797922 -0.088864935501098599 -2.8332044301653501e-05
2.1628596270662717e-06 -0.049550624827299883 -2.8663632191057267e-07
-0.0060406603992355593 -0.049578071122407523 1.4490811931588147e-11
-0.0055488549341309494 -0.088857554671860614 2.5913054302843882e-11
2.273372705644477e-06 -0.04955491263617269 1.4490102264370369e-11
-0.0058918022993829028 -0.069631955923087172 -1.4010803532047587e-05
-0.0030055298879762011 -0.049559503112775995 9.3346557639765497e-06
-0.0060406998913189337 -0.049577060765963944 9.6956194427040089e-06
-0.0029454046587971622 -0.069641345116228826 -6.4241049186434175e-06
-0.0055488277663059823 -0.088859377494187458 -1.4322301998939703e-05
2.2602117287309189e-06 -0.049553842428141724 -1.2971673132667263e-07
-0.0058922461988859878 -0.06962877242761438 2.0328809353776501e-11
-0.0030059239329453718 -0.049563686832145439 1.4491392724765452e-11
-0.0029460087889439661 -0.069638142200444828 2.0324509936153712e-11
-0.0058921662110488155 -0.069629548232124264 -6.8472964396690442e-06
-0.0030058406518437453 -0.049562670478096454 4.6559181529037312e-06
-0.002945862826108976 -0.069638920464631063 -3.2919442368024999e-06
4.049357555685093e-06 -0.014549645862030247 2.0452206150274572e-05
-0.0060376621840035737 -0.049556984576401911 4.3400526862396156e-05
6.5763255752614627e-07 -0.049538952496295599 -2.9371566407575514e-07
9.5500912424558482e-06 -0.014599827964310837 7.5776996245843331e-06
-0.0060406591521732118 -0.049573863299629331 1.9816709671815262e-05
2.1628596270662717e-06 -0.049550624827299883 -2.8663632191057267e-07
-0.0026125661543662409 -0.030519891063825435 4.2675225378717724e-05
-7.6557674346851208e-07 -0.030510253123415695 -8.1298196135506836e-08
7.7731841026784468e-06 -0.014580350247455725 1.3246069237989247e-05
-0.0030033601823266911 -0.049544360463222345 1.9427337751848498e-05
-0.0060401023120370016 -0.049567784069558446 3.0974533823936822e-05
1.8128056770812408e-06 -0.049545397409053733 -3.8136715686905976e-07
-0.0026152761157785336 -0.030548556954977553 2.0733914825489511e-05
-2.5063294560778171e-06 -0.030541748947863594 7.8289427792601289e-07
-0.0030055298879762011 -0.049559503112775995 9.3346557639765497e-06
-0.0026142674203266688 -0.030536686260538629 3.1887088643433185e-05
-2.1585300915457261e-06 -0.030528791475584585 7.4019528384179464e-07
-0.003004761163675158 -0.049553847914100758 1.4028636445390947e-05
9.5500912424558482e-06 -0.014599827964310837 7.5776996245843331e-06
-0.0060406591521732118 -0.049573863299629331 1.9816709671815262e-05
2.1628596270662717e-06 -0.049550624827299883 -2.8663632191057267e-07
1.0335753770846877e-05 -0.014616254380435375 4.2967088765686098e-12
-0.0060406603992355593 -0.049578071122407523 1.4490811931588147e-11
2.273372705644477e-06 -0.04955491263617269 1.4490102264370369e-11
-0.0026152761157785336 -0.030548556954977553 2.0733914825489511e-05
-2.5063294560778171e-06 -0.030541748947863594 7.8289427792601289e-07
1.0177098407710096e-05 -0.014612190680665181 3.4875980764031416e-06
-0.0030055298879762011 -0.049559503112775995 9.3346557639765497e-06
-0.0060406998913189337 -0.049577060765963944 9.6956194427040089e-06
2.2602117287309189e-06 -0.049553842428141724 -1.2971673132667263e-07
-0.0026160805030759583 -0.030558785075888068 8.9508862794429041e-12
-2.5810909883045224e-06 -0.030551915908874343 8.9527893253552764e-12
-0.0030059239329453718 -0.049563686832145439 1.4491392724765452e-11
-0.0026158906923016653 -0.030556222489366801 1.0280172495734596e-05
-2.578626772690632e-06 -0.030549367665031496 3.931064510270303e-07
-0.0030058406518437453 -0.049562670478096454 4.6559181529037312e-06
-1.0166493002525478e-06 -0.088913316581769181 -5.0208235865131124e-08
-0.0055467258696303562 -0.088886911782970646 -5.3304904706643785e-05
-0.0032617527936563773 -0.11873287706496265 -0.00012038855762913236
-9.2082278949048228e-07 -0.088891212032456271 -2.2852216874159768e-10
-0.0055486733306797922 -0.088864935501098599 -2.8332044301653501e-05
-0.0032627515407681103 -0.11868618199736942 -6.1332754392265008e-05
-0.0027619236494273083 -0.088907607163965383 -2.8749783351865117e-05
-0.002234412760354148 -0.10576784892904803 -5.1717948140390805e-05
-9.4529196252384301e-07 -0.088899933646391816 -4.5968133246734779e-08
-0.0044698568123659292 -0.10572956584665641 -0.00011026562841748046
-0.0055480997943732867 -0.088873957451404445 -4.144946372194452e-05
-0.0032624461012429212 -0.11870530808863634 -9.1243935245568185e-05
-0.0027642000599160726 -0.088886741711226125 -1.4198565462343804e-05
-0.0022355462958034231 -0.10572720704947879 -2.6569103446666583e-05
-0.0044721809713950721 -0.10568787036992812 -5.3835685052081009e-05
-0.0027635223511085229 -0.088895874430810345 -2.1336186170748028e-05
-0.0022349552475120016 -0.10574383888431634 -3.9481401124707997e-05
-0.0044715671777400953 -0.10570466147289906 -8.1449352332250898e-05
-9.2082278949048228e-07 -0.088891212032456271 -2.2852216874159768e-10
-0.0055486733306797922 -0.088864935501098599 -2.8332044301653501e-05
-0.0032627515407681103 -0.11868618199736942 -6.1332754392265008e-05
-8.8991402825461483e-07 -0.088883877384130436 2.5898423760557515e-11
-0.0055488549341309494 -0.088857554671860614 2.5913054302843882e-11
-0.0032628639191403471 -0.11867072227524939 3.4523362189105149e-11
-0.0027642000599160726 -0.088886741711226125 -1.4198565462343804e-05
-0.0022355462958034231 -0.10572720704947879 -2.6569103446666583e-05
-8.9735082944720811e-07 -0.088885705163951098 1.0049878920338168e-08
-0.0044721809713950721 -0.10568787036992812 -5.3835685052081009e-05
-0.0055488277663059823 -0.088859377494187458 -1.4322301998939703e-05
-0.0032628441843438353 -0.11867456624647457 -3.0781379535735395e-05
-0.0027645864040440806 -0.088879375316283746 2.5903296555903824e-11
-0.0022359402558153108 -0.1057139279341129 3.07634634280715e-11
-0.0044724680648002661 -0.10567455220965946 3.0776423277366221e-11
-0.0027645076561816891 -0.088881247022061391 -7.1172069631163884e-06
-0.0022358425552522288 -0.10571722080857689 -1.3326427644262957e-05
-0.0044724168937581949 -0.10567786210642578 -2.6793503067314476e-05
6.5763255752614627e-07 -0.049538952496295599 -2.9371566407575514e-07
-0.0055467258696303562 -0.088886911782970646 -5.3304904706643785e-05
-1.0166493002525478e-06 -0.088913316581769181 -5.0208235865131124e-08
2.1628596270662717e-06 -0.049550624827299883 -2.8663632191057267e-07
-0.0055486733306797922 -0.088864935501098599 -2.8332044301653501e-05
-9.2082278949048228e-07 -0.088891212032456271 -2.2852216874159768e-10
-0.0029434574087818456 -0.069652101755171295 -1.0772703567345051e-05
-1.461944403035235e-06 -0.069656624376349355 -7.8157809096919812e-08
1.8128056770812408e-06 -0.049545397409053733 -3.8136715686905976e-07
-0.0027619236494273083 -0.088907607163965383 -2.8749783351865117e-05
-0.0055480997943732867 -0.088873957451404445 -4.144946372194452e-05
-9.4529196252384301e-07 -0.088899933646391816 -4.5968133246734779e-08
-0.0029454046587971622 -0.069641345116228826 -6.4241049186434175e-06
-1.4401940217549764e-06 -0.069646676616441971 -1.4705730911940523e-07
-0.0027642000599160726 -0.088886741711226125 -1.4198565462343804e-05
-0.0029445288070957913 -0.06964549023256994 -8.9769113407538132e-06
-1.408472328185264e-06 -0.069651091187137124 -1.4212061584271754e-07
-0.0027635223511085229 -0.088895874430810345 -2.1336186170748028e-05
2.1628596270662717e-06 -0.049550624827299883 -2.8663632191057267e-07
-0.0055486733306797922 -0.088864935501098599 -2.8332044301653501e-05
-9.2082278949048228e-07 -0.088891212032456271 -2.2852216874159768e-10
2.273372705644477e-06 -0.04955491263617269 1.4490102264370369e-11
-0.0055488549341309494 -0.088857554671860614 2.5913054302843882e-11
-8.8991402825461483e-07 -0.088883877384130436 2.5898423760557515e-11
-0.0029454046587971622 -0.069641345116228826 -6.4241049186434175e-06
-1.4401940217549764e-06 -0.069646676616441971 -1.4705730911940523e-07