# vtk DataFile Version 4.2
u
ASCII
DATASET UNSTRUCTURED_GRID

POINTS 2880 double
0.59999999999999976 0.014999999999999999 0 0.5 0.029999999999999999 0 0.5 0.014999999999999999 0 0.59999999999999976 0.014999999999999999 0.0074999999999999997 0.5 0.029999999999999999 0.0074999999999999997 0.5 0.014999999999999999 0.0074999999999999997 0.54999999999999982 0.022499999999999999 0 0.54999999999999982 0.014999999999999999 0 0.59999999999999976 0.014999999999999999 0.0037499999999999999 0.5 0.022499999999999999 0 0.5 0.029999999999999999 0.0037499999999999999 0.5 0.014999999999999999 0.0037499999999999999 0.54999999999999982 0.022499999999999999 0.0074999999999999997 0.54999999999999982 0.014999999999999999 0.0074999999999999997 0.5 0.022499999999999999 0.0074999999999999997 0.54999999999999982 0.022499999999999999 0.0037499999999999999 0.54999999999999982 0.014999999999999999 0.0037499999999999999 0.5 0.022499999999999999 0.0037499999999999999 
0.59999999999999976 0.014999999999999999 0.0074999999999999997 0.5 0.029999999999999999 0.0074999999999999997 0.5 0.014999999999999999 0.0074999999999999997 0.59999999999999976 0.014999999999999999 0.014999999999999999 0.5 0.029999999999999999 0.014999999999999999 0.5 0.014999999999999999 0.014999999999999999 0.54999999999999982 0.022499999999999999 0.0074999999999999997 0.54999999999999982 0.014999999999999999 0.0074999999999999997 0.59999999999999976 0.014999999999999999 0.01125 0.5 0.022499999999999999 0.0074999999999999997 0.5 0.029999999999999999 0.01125 0.5 0.014999999999999999 0.01125 0.54999999999999982 0.022499999999999999 0.014999999999999999 0.54999999999999982 0.014999999999999999 0.014999999999999999 0.5 0.022499999999999999 0.014999999999999999 0.54999999999999982 0.022499999999999999 0.01125 0.54999999999999982 0.014999999999999999 0.01125 0.5 0.022499999999999999 0.01125 
0.5 0.029999999999999999 0 0.59999999999999976 0.014999999999999999 0 0.60000000000000009 0.029999999999999999 0 0.5 0.029999999999999999 0.0074999999999999997 0.59999999999999976 0.014999999999999999 0.0074999999999999997 0.60000000000000009 0.029999999999999999 0.0074999999999999997 0.54999999999999982 0.022499999999999999 0 0.55000000000000004 0.029999999999999999 0 0.5 0.029999999999999999 0.0037499999999999999 0.59999999999999987 0.022499999999999999 0 0.59999999999999976 0.014999999999999999 0.0037499999999999999 0.60000000000000009 0.029999999999999999 0.0037499999999999999 0.54999999999999982 0.022499999999999999 0.0074999999999999997 0.55000000000000004 0.029999999999999999 0.0074999999999999997 0.59999999999999987 0.022499999999999999 0.0074999999999999997 0.54999999999999982 0.022499999999999999 0.0037499999999999999 0.55000000000000004 0.029999999999999999 0.0037499999999999999 0.59999999999999987 0.022499999999999999 0.0037499999999999999 
0.5 0.029999999999999999 0.0074999999999999997 0.59999999999999976 0.014999999999999999 0.0074999999999999997 0.60000000000000009 0.029999999999999999 0.0074999999999999997 0.5 0.029999999999999999 0.014999999999999999 0.59999999999999976 0.014999999999999999 0.014999999999999999 0.60000000000000009 0.029999999999999999 0.014999999999999999 0.54999999999999982 0.022499999999999999 0.0074999999999999997 0.55000000000000004 0.029999999999999999 0.0074999999999999997 0.5 0.029999999999999999 0.01125 0.59999999999999987 0.022499999999999999 0.0074999999999999997 0.59999999999999976 0.014999999999999999 0.01125 0.60000000000000009 0.029999999999999999 0.01125 0.54999999999999982 0.022499999999999999 0.014999999999999999 0.55000000000000004 0.029999999999999999 0.014999999999999999 0.59999999999999987 0.022499999999999999 0.014999999999999999 0.54999999999999982 0.022499999999999999 0.01125 0.55000000000000004 0.029999999999999999 0.01125 0.59999999999999987 0.022499999999999999 0.01125 
1 0.029999999999999999 0 0.90000000000000024 0.029999999999999999 0 1 0.014999999999999999 0 1 0.029999999999999999 0.0074999999999999997 0.90000000000000024 0.029999999999999999 0.0074999999999999997 1 0.014999999999999999 0.0074999999999999997 0.95000000000000018 0.029999999999999999 0 1 0.022499999999999999 0 1 0.029999999999999999 0.0037499999999999999 0.95000000000000018 0.022499999999999999 0 0.90000000000000024 0.029999999999999999 0.0037499999999999999 1 0.014999999999999999 0.0037499999999999999 0.95000000000000018 0.029999999999999999 0.0074999999999999997 1 0.022499999999999999 0.0074999999999999997 0.95000000000000018 0.022499999999999999 0.0074999999999999997 0.95000000000000018 0.029999999999999999 0.0037499999999999999 1 0.022499999999999999 0.0037499999999999999 0.95000000000000018 0.022499999999999999 0.0037499999999999999 
1 0.029999999999999999 0.0074999999999999997 0.90000000000000024 0.029999999999999999 0.0074999999999999997 1 0.014999999999999999 0.0074999999999999997 1 0.029999999999999999 0.014999999999999999 0.90000000000000024 0.029999999999999999 0.014999999999999999 1 0.014999999999999999 0.014999999999999999 0.95000000000000018 0.029999999999999999 0.0074999999999999997 1 0.022499999999999999 0.0074999999999999997 1 0.029999999999999999 0.01125 0.95000000000000018 0.022499999999999999 0.0074999999999999997 0.90000000000000024 0.029999999999999999 0.01125 1 0.014999999999999999 0.01125 0.95000000000000018 0.029999999999999999 0.014999999999999999 1 0.022499999999999999 0.014999999999999999 0.95000000000000018 0.022499999999999999 0.014999999999999999 0.95000000000000018 0.029999999999999999 0.01125 1 0.022499999999999999 0.01125 0.95000000000000018 0.022499999999999999 0.01125 
0.90000000000000024 0.029999999999999999 0 0.89999999999999991 0.014999999999999999 0 1 0.014999999999999999 0 0.90000000000000024 0.029999999999999999 0.0074999999999999997 0.89999999999999991 0.014999999999999999 0.0074999999999999997 1 0.014999999999999999 0.0074999999999999997 0.90000000000000013 0.022499999999999999 0 0.95000000000000018 0.022499999999999999 0 0.90000000000000024 0.029999999999999999 0.0037499999999999999 0.94999999999999996 0.014999999999999999 0 0.89999999999999991 0.014999999999999999 0.0037499999999999999 1 0.014999999999999999 0.0037499999999999999 0.90000000000000013 0.022499999999999999 0.0074999999999999997 0.95000000000000018 0.022499999999999999 0.0074999999999999997 0.94999999999999996 0.014999999999999999 0.0074999999999999997 0.90000000000000013 0.022499999999999999 0.0037499999999999999 0.95000000000000018 0.022499999999999999 0.0037499999999999999 0.94999999999999996 0.014999999999999999 0.0037499999999999999 
0.90000000000000024 0.029999999999999999 0.0074999999999999997 0.89999999999999991 0.014999999999999999 0.0074999999999999997 1 0.014999999999999999 0.0074999999999999997 0.90000000000000024 0.029999999999999999 0.014999999999999999 0.89999999999999991 0.014999999999999999 0.014999999999999999 1 0.014999999999999999 0.014999999999999999 0.90000000000000013 0.022499999999999999 0.0074999999999999997 0.95000000000000018 0.022499999999999999 0.0074999999999999997 0.90000000000000024 0.029999999999999999 0.01125 0.94999999999999996 0.014999999999999999 0.0074999999999999997 0.89999999999999991 0.014999999999999999 0.01125 1 0.014999999999999999 0.01125 0.90000000000000013 0.022499999999999999 0.014999999999999999 0.95000000000000018 0.022499999999999999 0.014999999999999999 0.94999999999999996 0.014999999999999999 0.014999999999999999 0.90000000000000013 0.022499999999999999 0.01125 0.95000000000000018 0.022499999999999999 0.01125 0.94999999999999996 0.014999999999999999 0.01125 
0.90000000000000024 0.029999999999999999 0 0.80000000000000016 0.029999999999999999 0 0.89999999999999991 0.014999999999999999 0 0.90000000000000024 0.029999999999999999 0.0074999999999999997 0.80000000000000016 0.029999999999999999 0.0074999999999999997 0.89999999999999991 0.014999999999999999 0.0074999999999999997 0.8500000000000002 0.029999999999999999 0 0.90000000000000013 0.022499999999999999 0 0.90000000000000024 0.029999999999999999 0.0037499999999999999 0.85000000000000009 0.022499999999999999 0 0.80000000000000016 0.029999999999999999 0.0037499999999999999 0.89999999999999991 0.014999999999999999 0.0037499999999999999 0.8500000000000002 0.029999999999999999 0.0074999999999999997 0.90000000000000013 0.022499999999999999 0.0074999999999999997 0.85000000000000009 0.022499999999999999 0.0074999999999999997 0.8500000000000002 0.029999999999999999 0.0037499999999999999 0.90000000000000013 0.022499999999999999 0.0037499999999999999 0.85000000000000009 0.022499999999999999 0.0037499999999999999 
0.90000000000000024 0.029999999999999999 0.0074999999999999997 0.80000000000000016 0.029999999999999999 0.0074999999999999997 0.89999999999999991 0.014999999999999999 0.0074999999999999997 0.90000000000000024 0.029999999999999999 0.014999999999999999 0.80000000000000016 0.029999999999999999 0.014999999999999999 0.89999999999999991 0.014999999999999999 0.014999999999999999 0.8500000000000002 0.029999999999999999 0.0074999999999999997 0.90000000000000013 0.022499999999999999 0.0074999999999999997 0.90000000000000024 0.029999999999999999 0.01125 0.85000000000000009 0.022499999999999999 0.0074999999999999997 0.80000000000000016 0.029999999999999999 0.01125 0.89999999999999991 0.014999999999999999 0.01125 0.8500000000000002 0.029999999999999999 0.014999999999999999 0.90000000000000013 0.022499999999999999 0.014999999999999999 0.85000000000000009 0.022499999999999999 0.014999999999999999 0.8500000000000002 0.029999999999999999 0.01125 0.90000000000000013 0.022499999999999999 0.01125 0.85000000000000009 0.022499999999999999 0.01125 
[...]
POINT_DATA 2880

VECTORS u double
5.6109519402042572e-07 0.11879315395321476 5.8642975842071822e-08
-5.8182875475414784e-07 0.12977936498982207 0.00014786357338018801
2.6539883887129192e-07 0.12985361904928019 -1.1900409891494003e-06
5.8962020982467051e-07 0.11874670341935398 1.7556921928878377e-08
-9.8668620267591825e-07 0.12972273817047245 7.4364277959207268e-05
4.4925799817493372e-07 0.12979823778260352 -3.8505475435599075e-07
0.0008277701236925121 0.12704732187516896 7.4298693874488126e-05
8.190139262226257e-07 0.12706605529621107 2.4012224681979454e-08
5.7741022517871517e-07 0.11876564416566854 3.6308780309326037e-08
-3.423387789667403e-07 0.12983457959192721 7.3831093398179929e-05
-9.3483452781426413e-07 0.12974591162704968 0.00011122015967356474
3.6282730298537983e-07 0.12982114634691652 -7.364130993536131e-07
0.00082806404671017706 0.12699104583677359 3.7407355427002225e-05
7.3322736157007273e-07 0.12700992236967787 -1.8413032862804732e-08
-2.7724934243632511e-07 0.12977901972143338 3.6854098760186562e-05
0.00082786450540196907 0.12701431154240758 5.6035361086863095e-05
7.45463528313506e-07 0.12703325946918215 -2.9041031979791176e-08
-2.617026354189643e-07 0.12980224704219109 5.5231433404579553e-05
5.8962020982467051e-07 0.11874670341935398 1.7556921928878377e-08
-9.8668620267591825e-07 0.12972273817047245 7.4364277959207268e-05
4.4925799817493372e-07 0.12979823778260352 -3.8505475435599075e-07
5.906385962919633e-07 0.11873119998598379 4.9711723398421034e-10
-9.8673922130100701e-07 0.12970414169944858 5.4675638136493712e-10
4.9623538377238058e-07 0.12977958816782445 5.466962210377931e-10
0.00082806404671017706 0.12699104583677359 3.7407355427002225e-05
7.3322736157007273e-07 0.12700992236967787 -1.8413032862804732e-08
5.9052926188447673e-07 0.11873506516818144 8.4761566055509158e-09
-2.7724934243632511e-07 0.12977901972143338 3.6854098760186562e-05
-9.9352523650335945e-07 0.12970876785331847 3.7226607399865009e-05
4.8525821287782944e-07 0.12978424255856641 -1.6651958456074903e-07
0.00082819285042289004 0.12697246349619021 5.3343211676466927e-10
7.2690363163254252e-07 0.12699134062771888 5.3371505160196219e-10
-2.6865937194735756e-07 0.12976042245191358 5.465736609703549e-10
0.00082815980411144493 0.1269770907161627 1.8707006639936304e-05
7.2727666316827924e-07 0.12699598052193564 -1.0494245239606969e-08
-2.6983222688303106e-07 0.12976508348260729 1.8448546084998008e-05
-5.8182875475414784e-07 0.12977936498982207 0.00014786357338018801
5.6109519402042572e-07 0.11879315395321476 5.8642975842071822e-08
0.0032617527825677915 0.11873287707608099 0.00012038908926989986
-9.8668620267591825e-07 0.12972273817047245 7.4364277959207268e-05
5.8962020982467051e-07 0.11874670341935398 1.7556921928878377e-08
0.0032627515374375467 0.11868618200774944 6.1333286453009849e-05
0.0008277701236925121 0.12704732187516896 7.4298693874488126e-05
0.0016554285893497275 0.12699244263219936 0.00015093405565238521
-9.3483452781426413e-07 0.12974591162704968 0.00011122015967356474
0.0016245582205309337 0.1187782078424801 6.143805656242509e-05
5.7741022517871517e-07 0.11876564416566854 3.6308780309326037e-08
0.0032624460939317487 0.11870530809923216 9.1244466931050082e-05
0.00082806404671017706 0.12699104583677359 3.7407355427002225e-05
0.0016563697502089566 0.12693578354161869 7.4819542810780553e-05
0.0016258950225975586 0.11873263664494443 3.0632084236833215e-05
0.00082786450540196907 0.12701431154240761 5.6035361086863095e-05
0.0016561297522366114 0.12695914723615898 0.00011257891681643889
0.001625525386742834 0.11875193241958554 4.5913708058497521e-05
-9.8668620267591825e-07 0.12972273817047245 7.4364277959207268e-05
5.8962020982467051e-07 0.11874670341935398 1.7556921928878377e-08
0.0032627515374375467 0.11868618200774944 6.1333286453009849e-05
-9.8673922130100701e-07 0.12970414169944858 5.4675638136493712e-10
5.906385962919633e-07 0.11873119998598379 4.9711723398421034e-10
0.0032628639237877802 0.11867072228541777 4.9736502962615613e-10
0.00082806404671017706 0.12699104583677359 3.7407355427002225e-05
0.0016563697502089566 0.12693578354161869 7.4819542810780553e-05
-9.9352523650335945e-07 0.12970876785331847 3.7226607399865009e-05
0.0016258950225975586 0.11873263664494443 3.0632084236833215e-05
5.9052926188447673e-07 0.11873506516818144 8.4761566055509158e-09
0.0032628441849789618 0.1186745662564523 3.0781911523646841e-05
0.00082819285042289004 0.12697246349619021 5.3343211676466927e-10
0.001656470641707752 0.12691712116714651 5.3361152341320366e-10
0.0016261117238118175 0.11871715015267764 4.9711634184092351e-10
0.00082815980411144493 0.1269770907161627 1.8707006639936304e-05
0.0016564545225433859 0.12692177427388818 3.733753134611723e-05
0.0016260683186778309 0.11872104723660507 1.5338931019590942e-05
0 0 0
0.0041895450335680514 0.01462044241378834 -0.00012258185331324087
0 0 0
0 0 0
0.0042018960036165438 0.014675982806246997 -6.587067179832982e-05
0 0 0
0.002165029969688479 0.0037884032707148261 -0.00023398006893371421
0 0 0
0 0 0
0.0010795267064069437 0.0037252827489858737 -0.00010467316927372314
0.0041993953533500661 0.014656152515994019 -9.5469805130870587e-05
0 0 0
0.0021564085540162763 0.0038780754197060827 -0.00010922920929030227
0 0 0
0.0010786292907674548 0.0038094593564539344 -5.2970369125655405e-05
0.0021583704293475295 0.0038429531918081268 -0.00016872860504049428
0 0 0
0.0010794557241774244 0.0037761517392691855 -7.9052980297340347e-05
0 0 0
0.0042018960036165438 0.014675982806246997 -6.587067179832982e-05
0 0 0
0 0 0
0.0042024725048626218 0.014692923795641714 5.8752394064049296e-11
0 0 0
0.0021564085540162763 0.0038780754197060827 -0.00010922920929030227
0 0 0
0 0 0
0.0010786292907674548 0.0038094593564539344 -5.2970369125655405e-05
0.0042024782831095245 0.014688827672772178 -3.3454378808498819e-05
0 0 0
0.0021555193832861197 0.0039044617484263701 1.464162404683751e-11
0 0 0
0.0010781833558558681 0.0038348200395170486 1.5078007733691191e-11
0.0021556617296023218 0.0038979559418891364 -5.3757264426715164e-05
0 0 0
0.0010783019794556965 0.0038286615865411894 -2.6449812606676447e-05
0.0041895450335680514 0.01462044241378834 -0.00012258185331324087
-4.0493756807591122e-06 0.014549645849349821 -2.0452142438465753e-05
0 0 0
0.0042018960036165438 0.014675982806246997 -6.587067179832982e-05
-9.5501000875008229e-06 0.014599827951285201 -7.5776357821911953e-06
0 0 0
0.0020781648206707332 0.014574344159872342 -7.1210712653049912e-05
0.0010795267064069437 0.0037252827489858737 -0.00010467316927372314
0.0041993953533500661 0.014656152515994019 -9.5469805130870587e-05
5.2191909346463864e-06 0.0037074477070115513 7.2438665589001557e-06
-7.7731976658893599e-06 0.014580350234565054 -1.3246005786896468e-05
0 0 0
0.0020818832857615239 0.014620105881177991 -3.5369136457366687e-05
0.0010786292907674548 0.0038094593564539344 -5.2970369125655405e-05
8.1134367500617705e-06 0.0037870416215802709 4.3114281616429555e-06
0.0020804842569287934 0.014598638775622797 -5.3005044925621815e-05
0.0010794557241774244 0.0037761517392691855 -7.9052980297340347e-05
6.9440104680360338e-06 0.003755496034328224 6.219603505977975e-06
0.0042018960036165438 0.014675982806246997 -6.587067179832982e-05
-9.5501000875008229e-06 0.014599827951285201 -7.5776357821911953e-06
0 0 0
0.0042024725048626218 0.014692923795641714 5.8752394064049296e-11
-1.0335753180287869e-05 0.014616254367392107 5.9331536529649289e-11
0 0 0
0.0020818832857615239 0.014620105881177991 -3.5369136457366687e-05
0.0010786292907674548 0.0038094593564539344 -5.2970369125655405e-05
0.0042024782831095245 0.014688827672772178 -3.3454378808498819e-05
8.1134367500617705e-06 0.0037870416215802709 4.3114281616429555e-06
-1.0177102633323255e-05 0.014612190667473003 -3.487534693602833e-06
0 0 0
0.0020824688653674327 0.014637080740216022 5.9029306872928084e-11
0.0010781833558558681 0.0038348200395170486 1.5078007733691191e-11
8.8165891847051288e-06 0.0038119062931674017 1.5237797228485598e-11
0.0020823523803147523 0.01463268796540323 -1.7704214825117458e-05
0.0010783019794556965 0.0038286615865411894 -2.6449812606676447e-05
8.6517031884083544e-06 0.0038057960288128451 2.0686946289606944e-06
0.0041895450335680514 0.01462044241378834 -0.00012258185331324087
0.006037662156564527 0.049556984548349461 -4.340030921565102e-05
-4.0493756807591122e-06 0.014549645849349821 -2.0452142438465753e-05
0.0042018960036165438 0.014675982806246997 -6.587067179832982e-05
0.0060406591383032017 0.049573863271478849 -1.9816491774161007e-05
-9.5501000875008229e-06 0.014599827951285201 -7.5776357821911953e-06
0.0052281805337185032 0.030551760774569541 -7.3779394396614596e-05
0.0020781648206707332 0.014574344159872342 -7.1210712653049912e-05
0.0041993953533500661 0.014656152515994019 -9.5469805130870587e-05
0.0026125661298005967 0.030519891040678464 -4.267509206262788e-05
0.0060401022913132794 0.049567784041118418 -3.0974316283128355e-05
-7.7731976658893599e-06 0.014580350234565054 -1.3246005786896468e-05
0.0052310258944377169 0.030578297967218466 -3.8450772577838583e-05
0.0020818832857615239 0.014620105881177991 -3.5369136457366687e-05
0.0026152761030655155 0.030548556931736377 -2.073378124262287e-05
0.005229943185641261 0.030566863328232222 -5.6276537564145075e-05
0.0020804842569287934 0.014598638775622797 -5.3005044925621815e-05
0.0026142674016120496 0.030536686237215838 -3.1886955358878514e-05
0.0042018960036165438 0.014675982806246997 -6.587067179832982e-05
0.0060406591383032017 0.049573863271478849 -1.9816491774161007e-05
-9.5501000875008229e-06 0.014599827951285201 -7.5776357821911953e-06
0.0042024725048626218 0.014692923795641714 5.8752394064049296e-11
0.0060406603988005765 0.049578071094099299 2.0283896878029317e-10
-1.0335753180287869e-05 0.014616254367392107 5.9331536529649289e-11
0.0052310258944377169 0.030578297967218466 -3.8450772577838583e-05
0.0020818832857615239 0.014620105881177991 -3.5369136457366687e-05
0.0042024782831095245 0.014688827672772178 -3.3454378808498819e-05
0.0026152761030655155 0.030548556931736377 -2.073378124262287e-05
0.0060406998840331644 0.049577060737562441 -9.6954019126430891e-06
-1.0177102633323255e-05 0.014612190667473003 -3.487534693602833e-06
0.005231807979706413 0.030588510708504768 1.2389532537013656e-10
0.0020824688653674327 0.014637080740216022 5.9029306872928084e-11
0.0026160805022614835 0.03055878505266596 1.2422583908546454e-10
0.0052316209364425773 0.030585946691882408 -1.9401487190664411e-05
0.0020823523803147523 0.01463268796540323 -1.7704214825117458e-05
0.0026158906854405204 0.030556222466037602 -1.0280039295529045e-05
0.006037662156564527 0.049556984548349461 -4.340030921565102e-05
0.0055467258484043673 0.088886911765634666 5.3305299321053083e-05
-6.5765906114545272e-07 0.049538952467951605 2.9393342847274405e-07
0.0060406591383032017 0.049573863271478849 -1.9816491774161007e-05
0.0055486733222567955 0.088864935483328453 2.8332438875527265e-05
-2.1628726128184539e-06 0.049550624799049779 2.8685375600270825e-07
0.0058883043671747832 0.069644393313221142 3.1956590472807561e-05
0.0030033601551891671 0.049544360434875277 -1.9427120255858591e-05
0.0060401022913132794 0.049567784041118418 -3.0974316283128355e-05
0.0029434573831462908 0.069652101728248178 1.0773010861497536e-05
0.0055480997793730755 0.088873957433568615 4.144985816279979e-05
-1.8128256060791643e-06 0.049545397380757958 3.8158452668790935e-07
0.0058918022877358506 0.069631955896310008 1.4011111021018833e-05
0.0030055298743923357 0.049559503084271171 -9.3344381446672615e-06
0.0029454046464144562 0.069641345089313869 6.4244119886486559e-06
0.0058908922348468624 0.069636153510644755 2.2011448465671577e-05
0.0030047611432679135 0.049553847885532951 -1.4028419111778228e-05
0.0029445287879927094 0.06964549020556772 8.9772183688724303e-06
0.0060406591383032017 0.049573863271478849 -1.9816491774161007e-05
0.0055486733222567955 0.088864935483328453 2.8332438875527265e-05
-2.1628726128184539e-06 0.049550624799049779 2.8685375600270825e-07
0.0060406603988005765 0.049578071094099299 2.0283896878029317e-10
0.0055488549382260921 0.088857554653692633 3.6849140691241375e-10
-2.2733727451987167e-06 0.049554912607929082 2.0274865776202444e-10
0.0058918022877358506 0.069631955896310008 1.4011111021018833e-05
0.0030055298743923357 0.049559503084271171 -9.3344381446672615e-06
0.0060406998840331644 0.049577060737562441 -9.6954019126430891e-06
0.0029454046464144562 0.069641345089313869 6.4244119886486559e-06
0.0055488277638648387 0.088859377476041099 1.4322696373443838e-05
-2.2602184614904616e-06 0.049553842399634611 1.2993373548321281e-07
0.0058922462005269937 0.069628772400513364 2.8671217885773055e-10
0.0030059239327004171 0.049563686803726484 2.0273255647609787e-10
0.0029460087896804477 0.069638142173118839 2.8683059816313628e-10
0.0058921662058806779 0.069629548205054154 6.8476036886452309e-06
0.0030058406448449102 0.049562670449456447 -4.6557009163264419e-06
0.0029458628200450081 0.069638920437428725 3.2922512967014425e-06
-4.0493756807591122e-06 0.014549645849349821 -2.0452142438465753e-05
0.006037662156564527 0.049556984548349461 -4.340030921565102e-05
-6.5765906114545272e-07 0.049538952467951605 2.9393342847274405e-07
-9.5501000875008229e-06 0.014599827951285201 -7.5776357821911953e-06
0.0060406591383032017 0.049573863271478849 -1.9816491774161007e-05
-2.1628726128184539e-06 0.049550624799049779 2.8685375600270825e-07
0.0026125661298005967 0.030519891040678464 -4.267509206262788e-05
7.6555352776904578e-07 0.030510253100552887 8.1431597934984539e-08
-7.7731976658893599e-06 0.014580350234565054 -1.3246005786896468e-05
0.0030033601551891671 0.049544360434875277 -1.9427120255858591e-05
0.0060401022913132794 0.049567784041118418 -3.0974316283128355e-05
-1.8128256060791643e-06 0.049545397380757958 3.8158452668790935e-07
0.0026152761030655155 0.030548556931736377 -2.073378124262287e-05
2.5063179580306856e-06 0.030541748924628777 -7.8276105513059916e-07
0.0030055298743923357 0.049559503084271171 -9.3344381446672615e-06
0.0026142674016120496 0.030536686237215831 -3.1886955358878514e-05
2.1585127151149778e-06 0.030528791452642437 -7.4006215661373271e-07
0.0030047611432679135 0.049553847885532951 -1.4028419111778228e-05
-9.5501000875008229e-06 0.014599827951285201 -7.5776357821911953e-06
0.0060406591383032017 0.049573863271478849 -1.9816491774161007e-05
-2.1628726128184539e-06 0.049550624799049779 2.8685375600270825e-07
-1.0335753180287869e-05 0.014616254367392107 5.9331536529649289e-11
0.0060406603988005765 0.049578071094099299 2.0283896878029317e-10
-2.2733727451987167e-06 0.049554912607929082 2.0274865776202444e-10
0.0026152761030655155 0.030548556931736377 -2.073378124262287e-05
2.5063179580306856e-06 0.030541748924628777 -7.8276105513059916e-07
-1.0177102633323255e-05 0.014612190667473003 -3.487534693602833e-06
0.0030055298743923357 0.049559503084271171 -9.3344381446672615e-06
0.0060406998840331644 0.049577060737562441 -9.6954019126430891e-06
-2.2602184614904616e-06 0.049553842399634611 1.2993373548321281e-07
0.0026160805022614835 0.03055878505266596 1.2422583908546454e-10
2.5810909527376699e-06 0.030551915885919625 1.2412370006236587e-10
0.0030059239327004171 0.049563686803726484 2.0273255647609787e-10
0.0026158906854405208 0.030556222466037602 -1.0280039295529045e-05
2.5786209814735875e-06 0.030549367641877104 -3.9297354507315437e-07
0.0030058406448449102 0.049562670449456447 -4.6557009163264419e-06
1.0166244667574636e-06 0.088913316563829614 5.060266925274684e-08
0.0055467258484043673 0.088886911765634666 5.3305299321053083e-05
0.0032617527825677915 0.11873287707608099 0.00012038908926989986
9.2081030928638455e-07 0.088891212014720999 6.2299570494604654e-10
0.0055486733222567955 0.088864935483328453 2.8332438875527265e-05
0.0032627515374375467 0.11868618200774944 6.1333286453009849e-05
0.0027619236263223073 0.088907607146282625 2.8750177581425074e-05
0.0022344127416595531 0.10576784892491238 5.1718419259787514e-05
9.452732126098346e-07 0.088899933628323588 4.636242188778222e-08
0.0044698567957774799 0.10572956584305503 0.00011026609969861992
0.0055480997793730755 0.088873957433568615 4.144985816279979e-05
0.0032624460939317487 0.11870530809923216 9.1244466931050082e-05
0.0027642000493146692 0.088886741693372656 1.4198959645990359e-05
0.0022355462872639485 0.10572720704512005 2.656957452194204e-05
0.0044721809651039586 0.105687870365563 5.3836156567360826e-05
0.0027635223341496442 0.088895874412858664 2.1336580285128079e-05
0.0022349552339101246 0.10574383887988284 3.9481872220436688e-05
0.0044715671662254987 0.10570466146879394 8.1449823581662028e-05
9.2081030928638455e-07 0.088891212014720999 6.2299570494604654e-10
0.0055486733222567955 0.088864935483328453 2.8332438875527265e-05
0.0032627515374375467 0.11868618200774944 6.1333286453009849e-05
8.899144096286739e-07 0.088883877366121911 3.6830575764438331e-10
0.0055488549382260921 0.088857554653692633 3.6849140691241375e-10
0.0032628639237877802 0.11867072228541777 4.9736502962615613e-10
0.0027642000493146692 0.088886741693372656 1.4198959645990359e-05
0.0022355462872639485 0.10572720704512005 2.656957452194204e-05
8.9734460940892411e-07 0.088885705145937161 -9.6558149061279652e-09
0.0044721809651039586 0.105687870365563 5.3836156567360826e-05
0.0055488277638648387 0.088859377476041099 1.4322696373443838e-05
0.0032628441849789618 0.1186745662564523 3.0781911523646841e-05
0.0027645864061520702 0.088879375298047583 3.6821861746286475e-10
0.0022359402581726738 0.10571392792972516 4.4015787105200523e-10
0.0044724680691868683 0.10567455220500299 4.4055049973841695e-10
0.0027645076518030155 0.088881247003995731 7.1176009326511259e-06
0.0022358425520662387 0.10571722080410896 1.3326898617926545e-05
0.0044724168928104904 0.10567786210175227 2.6793974518984995e-05
-6.5765906114545272e-07 0.049538952467951605 2.9393342847274405e-07
0.0055467258484043673 0.088886911765634666 5.3305299321053083e-05
1.0166244667574636e-06 0.088913316563829614 5.060266925274684e-08
-2.1628726128184539e-06 0.049550624799049779 2.8685375600270825e-07
0.0055486733222567955 0.088864935483328453 2.8332438875527265e-05
9.2081030928638455e-07 0.088891212014720999 6.2299570494604654e-10
0.0029434573831462908 0.069652101728248178 1.0773010861497536e-05
1.4619178700676042e-06 0.069656624349177437 7.8465237846144788e-08
-1.8128256060791643e-06 0.049545397380757958 3.8158452668790935e-07
0.0027619236263223073 0.088907607146282625 2.8750177581425074e-05
0.0055480997793730755 0.088873957433568615 4.144985816279979e-05
9.452732126098346e-07 0.088899933628323588 4.636242188778222e-08
0.0029454046464144562 0.069641345089313869 6.4244119886486559e-06
1.4401808416210544e-06 0.069646676589587897 1.4736454883713897e-07
0.0027642000493146692 0.088886741693372656 1.4198959645990359e-05
0.0029445287879927094 0.06964549020556772 8.9772183688724303e-06
1.4084523933924722e-06 0.069651091160023174 1.4242782328256871e-07
0.0027635223341496442 0.088895874412858664 2.1336580285128082e-05
-2.1628726128184539e-06 0.049550624799049779 2.8685375600270825e-07
0.0055486733222567955 0.088864935483328453 2.8332438875527265e-05
9.2081030928638455e-07 0.088891212014720999 6.2299570494604654e-10
-2.2733727451987167e-06 0.049554912607929082 2.0274865776202444e-10
0.0055488549382260921 0.088857554653692633 3.6849140691241375e-10
8.899144096286739e-07 0.088883877366121911 3.6830575764438331e-10
0.0029454046464144562 0.069641345089313869 6.4244119886486559e-06
1.4401808416210544e-06 0.069646676589587897 1.4736454883713897e-07
-2.2602184614904616e-06 0.049553842399634611 1.2993373548321281e-07
0.0027642000493146692 0.088886741693372656 1.4198959645990359e-05
0.0055488277638648387 0.088859377476041099 1.4322696373443838e-05
8.9734460940892411e-07 0.088885705145937161 -9.6558149061279652e-09
0.0029460087896804477 0.069638142173118839 2.8683059816313628e-10
1.4821087145023911e-06 0.069643206147505368 2.867872160778168e-10
0.0027645864061520702 0.088879375298047583 3.6821861746286475e-10
0.0029458628200450076 0.069638920437428725 3.2922512967014425e-06