# vtk DataFile Version 4.2
u
ASCII
DATASET UNSTRUCTURED_GRID

POINTS 2880 double
0.59999999999999976 0.014999999999999999 0 0.5 0.029999999999999999 0 0.5 0.014999999999999999 0 0.59999999999999976 0.014999999999999999 0.0074999999999999997 0.5 0.029999999999999999 0.0074999999999999997 0.5 0.014999999999999999 0.0074999999999999997 0.54999999999999982 0.022499999999999999 0 0.54999999999999982 0.014999999999999999 0 0.59999999999999976 0.014999999999999999 0.0037499999999999999 0.5 0.022499999999999999 0 0.5 0.029999999999999999 0.0037499999999999999 0.5 0.014999999999999999 0.0037499999999999999 0.54999999999999982 0.022499999999999999 0.0074999999999999997 0.54999999999999982 0.014999999999999999 0.0074999999999999997 0.5 0.022499999999999999 0.0074999999999999997 0.54999999999999982 0.022499999999999999 0.0037499999999999999 0.54999999999999982 0.014999999999999999 0.0037499999999999999 0.5 0.022499999999999999 0.0037499999999999999 
0.59999999999999976 0.014999999999999999 0.0074999999999999997 0.5 0.029999999999999999 0.0074999999999999997 0.5 0.014999999999999999 0.0074999999999999997 0.59999999999999976 0.014999999999999999 0.014999999999999999 0.5 0.029999999999999999 0.014999999999999999 0.5 0.014999999999999999 0.014999999999999999 0.54999999999999982 0.022499999999999999 0.0074999999999999997 0.54999999999999982 0.014999999999999999 0.0074999999999999997 0.59999999999999976 0.014999999999999999 0.01125 0.5 0.022499999999999999 0.0074999999999999997 0.5 0.029999999999999999 0.01125 0.5 0.014999999999999999 0.01125 0.54999999999999982 0.022499999999999999 0.014999999999999999 0.54999999999999982 0.014999999999999999 0.014999999999999999 0.5 0.022499999999999999 0.014999999999999999 0.54999999999999982 0.022499999999999999 0.01125 0.54999999999999982 0.014999999999999999 0.01125 0.5 0.022499999999999999 0.01125 
0.5 0.029999999999999999 0 0.59999999999999976 0.014999999999999999 0 0.60000000000000009 0.029999999999999999 0 0.5 0.029999999999999999 0.0074999999999999997 0.59999999999999976 0.014999999999999999 0.0074999999999999997 0.60000000000000009 0.029999999999999999 0.0074999999999999997 0.54999999999999982 0.022499999999999999 0 0.55000000000000004 0.029999999999999999 0 0.5 0.029999999999999999 0.0037499999999999999 0.59999999999999987 0.022499999999999999 0 0.59999999999999976 0.014999999999999999 0.0037499999999999999 0.60000000000000009 0.029999999999999999 0.0037499999999999999 0.54999999999999982 0.022499999999999999 0.0074999999999999997 0.55000000000000004 0.029999999999999999 0.0074999999999999997 0.59999999999999987 0.022499999999999999 0.0074999999999999997 0.54999999999999982 0.022499999999999999 0.0037499999999999999 0.55000000000000004 0.029999999999999999 0.0037499999999999999 0.59999999999999987 0.022499999999999999 0.0037499999999999999 
0.5 0.029999999999999999 0.0074999999999999997 0.59999999999999976 0.014999999999999999 0.0074999999999999997 0.60000000000000009 0.029999999999999999 0.0074999999999999997 0.5 0.029999999999999999 0.014999999999999999 0.59999999999999976 0.014999999999999999 0.014999999999999999 0.60000000000000009 0.029999999999999999 0.014999999999999999 0.54999999999999982 0.022499999999999999 0.0074999999999999997 0.55000000000000004 0.029999999999999999 0.0074999999999999997 0.5 0.029999999999999999 0.01125 0.59999999999999987 0.022499999999999999 0.0074999999999999997 0.59999999999999976 0.014999999999999999 0.01125 0.60000000000000009 0.029999999999999999 0.01125 0.54999999999999982 0.022499999999999999 0.014999999999999999 0.55000000000000004 0.029999999999999999 0.014999999999999999 0.59999999999999987 0.022499999999999999 0.014999999999999999 0.54999999999999982 0.022499999999999999 0.01125 0.55000000000000004 0.029999999999999999 0.01125 0.59999999999999987 0.022499999999999999 0.01125 
1 0.029999999999999999 0 0.90000000000000024 0.029999999999999999 0 1 0.014999999999999999 0 1 0.029999999999999999 0.0074999999999999997 0.90000000000000024 0.029999999999999999 0.0074999999999999997 1 0.014999999999999999 0.0074999999999999997 0.95000000000000018 0.029999999999999999 0 1 0.022499999999999999 0 1 0.029999999999999999 0.0037499999999999999 0.95000000000000018 0.022499999999999999 0 0.90000000000000024 0.029999999999999999 0.0037499999999999999 1 0.014999999999999999 0.0037499999999999999 0.95000000000000018 0.029999999999999999 0.0074999999999999997 1 0.022499999999999999 0.0074999999999999997 0.95000000000000018 0.022499999999999999 0.0074999999999999997 0.95000000000000018 0.029999999999999999 0.0037499999999999999 1 0.022499999999999999 0.0037499999999999999 0.95000000000000018 0.022499999999999999 0.0037499999999999999 
1 0.029999999999999999 0.0074999999999999997 0.90000000000000024 0.029999999999999999 0.0074999999999999997 1 0.014999999999999999 0.0074999999999999997 1 0.029999999999999999 0.014999999999999999 0.90000000000000024 0.029999999999999999 0.014999999999999999 1 0.014999999999999999 0.014999999999999999 0.95000000000000018 0.029999999999999999 0.0074999999999999997 1 0.022499999999999999 0.0074999999999999997 1 0.029999999999999999 0.01125 0.95000000000000018 0.022499999999999999 0.0074999999999999997 0.90000000000000024 0.029999999999999999 0.01125 1 0.014999999999999999 0.01125 0.95000000000000018 0.029999999999999999 0.014999999999999999 1 0.022499999999999999 0.014999999999999999 0.95000000000000018 0.022499999999999999 0.014999999999999999 0.95000000000000018 0.029999999999999999 0.01125 1 0.022499999999999999 0.01125 0.95000000000000018 0.022499999999999999 0.01125 
0.90000000000000024 0.029999999999999999 0 0.89999999999999991 0.014999999999999999 0 1 0.014999999999999999 0 0.90000000000000024 0.029999999999999999 0.0074999999999999997 0.89999999999999991 0.014999999999999999 0.0074999999999999997 1 0.014999999999999999 0.0074999999999999997 0.90000000000000013 0.022499999999999999 0 0.95000000000000018 0.022499999999999999 0 0.90000000000000024 0.029999999999999999 0.0037499999999999999 0.94999999999999996 0.014999999999999999 0 0.89999999999999991 0.014999999999999999 0.0037499999999999999 1 0.014999999999999999 0.0037499999999999999 0.90000000000000013 0.022499999999999999 0.0074999999999999997 0.95000000000000018 0.022499999999999999 0.0074999999999999997 0.94999999999999996 0.014999999999999999 0.0074999999999999997 0.90000000000000013 0.022499999999999999 0.0037499999999999999 0.95000000000000018 0.022499999999999999 0.0037499999999999999 0.94999999999999996 0.014999999999999999 0.0037499999999999999 
0.90000000000000024 0.029999999999999999 0.0074999999999999997 0.89999999999999991 0.014999999999999999 0.0074999999999999997 1 0.014999999999999999 0.0074999999999999997 0.90000000000000024 0.029999999999999999 0.014999999999999999 0.89999999999999991 0.014999999999999999 0.014999999999999999 1 0.014999999999999999 0.014999999999999999 0.90000000000000013 0.022499999999999999 0.0074999999999999997 0.95000000000000018 0.022499999999999999 0.0074999999999999997 0.90000000000000024 0.029999999999999999 0.01125 0.94999999999999996 0.014999999999999999 0.0074999999999999997 0.89999999999999991 0.014999999999999999 0.01125 1 0.014999999999999999 0.01125 0.90000000000000013 0.022499999999999999 0.014999999999999999 0.95000000000000018 0.022499999999999999 0.014999999999999999 0.94999999999999996 0.014999999999999999 0.014999999999999999 0.90000000000000013 0.022499999999999999 0.01125 0.95000000000000018 0.022499999999999999 0.01125 0.94999999999999996 0.014999999999999999 0.01125 
0.90000000000000024 0.029999999999999999 0 0.80000000000000016 0.029999999999999999 0 0.89999999999999991 0.014999999999999999 0 0.90000000000000024 0.029999999999999999 0.0074999999999999997 0.80000000000000016 0.029999999999999999 0.0074999999999999997 0.89999999999999991 0.014999999999999999 0.0074999999999999997 0.8500000000000002 0.029999999999999999 0 0.90000000000000013 0.022499999999999999 0 0.90000000000000024 0.029999999999999999 0.0037499999999999999 0.85000000000000009 0.022499999999999999 0 0.80000000000000016 0.029999999999999999 0.0037499999999999999 0.89999999999999991 0.014999999999999999 0.0037499999999999999 0.8500000000000002 0.029999999999999999 0.0074999999999999997 0.90000000000000013 0.022499999999999999 0.0074999999999999997 0.85000000000000009 0.022499999999999999 0.0074999999999999997 0.8500000000000002 0.029999999999999999 0.0037499999999999999 0.90000000000000013 0.022499999999999999 0.0037499999999999999 0.85000000000000009 0.022499999999999999 0.0037499999999999999 
0.90000000000000024 0.029999999999999999 0.0074999999999999997 0.80000000000000016 0.029999999999999999 0.0074999999999999997 0.89999999999999991 0.014999999999999999 0.0074999999999999997 0.90000000000000024 0.029999999999999999 0.014999999999999999 0.80000000000000016 0.029999999999999999 0.014999999999999999 0.89999999999999991 0.014999999999999999 0.014999999999999999 0.8500000000000002 0.029999999999999999 0.0074999999999999997 0.90000000000000013 0.022499999999999999 0.0074999999999999997 0.90000000000000024 0.029999999999999999 0.01125 0.85000000000000009 0.022499999999999999 0.0074999999999999997 0.80000000000000016 0.029999999999999999 0.01125 0.89999999999999991 0.014999999999999999 0.01125 0.8500000000000002 0.029999999999999999 0.014999999999999999 0.90000000000000013 0.022499999999999999 0.014999999999999999 0.85000000000000009 0.022499999999999999 0.014999999999999999 0.8500000000000002 0.029999999999999999 0.01125 0.90000000000000013 0.022499999999999999 0.01125 0.85000000000000009 0.022499999999999999 0.01125 
[...]
POINT_DATA 2880

VECTORS u double
0.010067114630076415 2.1975280806636809e-05 0.083339377847778631
0.013989424088740217 1.5578820863567473e-05 8.1659249160104592e-07
0.013998774261316488 2.0211991391442908e-05 1.485237562338833e-05
0.0049771135730733076 1.0939592021951851e-05 0.083443359933386571
0.0069157316477626322 8.8186763261407682e-06 1.5366644167196176e-05
0.006923746172676614 1.0173680060056659e-05 5.8101258545033405e-06
0.012551646081841023 0.00010734955674002137 0.04500201538525684
0.01255340233313792 1.9934913352492866e-05 0.044959127383060966
0.0074979476917266608 1.6354319885148951e-05 0.083397226420898557
0.013999350473682965 1.4018333284242539e-05 9.5882964271793965e-06
0.010420578120321803 1.2370533136788543e-05 1.1047463277269929e-05
0.010430834346595518 1.4576216528908778e-05 8.6974412902080902e-06
0.0062764690497139567 5.2989503251002161e-05 0.045069910044792091
0.00628099078565981 9.8200762354120964e-06 0.045036336963912134
0.0069221496947104158 9.6809746285571715e-06 1.046735704241386e-05
0.00941570428324396 7.9462825455833819e-05 0.045041530512277148
0.0094208287315655035 1.4452337713795395e-05 0.045006163605463001
0.010428916605148005 1.4111302900866814e-05 9.9106780127369154e-06
0.0049771135730733076 1.0939592021951851e-05 0.083443359933386571
0.0069157316477626322 8.8186763261407682e-06 1.5366644167196176e-05
0.006923746172676614 1.0173680060056659e-05 5.8101258545033405e-06
-7.8490758155310467e-18 -3.5444517876851735e-12 0.083482755336088801
6.0067777565697109e-13 2.2982860924584409e-15 1.7160627879351554e-05
3.9089544932794157e-16 1.0616759092331429e-15 4.7659533578728631e-06
0.0062764690497139567 5.2989503251002161e-05 0.045069910044792091
0.00628099078565981 9.8200762354120964e-06 0.045036336963912134
0.0024825742747474145 5.4733272230949328e-06 0.083472683904193545
0.0069221496947104158 9.6809746285571715e-06 1.046735704241386e-05
0.0034489944076542653 4.4781925637266094e-06 1.6861266493838248e-05
0.0034533272739045899 5.0934016695571531e-06 4.9285778523950022e-06
2.6493889524116819e-13 -1.9129950539471362e-12 0.045092104125984724
-2.3675034191166669e-16 -1.9135689756294373e-12 0.045059183824362144
2.9855146188067619e-13 1.8121193201437696e-15 1.0991263793336571e-05
0.0031378469768561981 2.6547097895886427e-05 0.045086594859926013
0.0031403145399933933 4.8990848553756498e-06 0.045053626894228045
0.0034523899131778096 4.9351131942063522e-06 1.0852055305499586e-05
0.013989424088740217 1.5578820863567473e-05 8.1659249160104592e-07
0.010067114630076415 2.1975280806636809e-05 0.083339377847778631
0.010064765197371796 0.00034429729681764487 0.083497294539137554
0.0069157316477626322 8.8186763261407682e-06 1.5366644167196176e-05
0.0049771135730733076 1.0939592021951851e-05 0.083443359933386571
0.0049847903520919565 0.00017388680494983148 0.083622199363125482
0.012551646081841023 0.00010734955674002137 0.04500201538525684
0.012541137702310207 0.00020365606318280391 0.045093078545329339
0.010420578120321803 1.2370533136788543e-05 1.1047463277269929e-05
0.010071131452305112 0.00018011231984213266 0.083372426583765674
0.0074979476917266608 1.6354319885148951e-05 0.083397226420898557
0.0075073123526648812 0.00025920609339908388 0.083569599703238018
0.0062764690497139567 5.2989503251002161e-05 0.045069910044792091
0.0062660718659916358 9.7341750069715487e-05 0.045147393510053452
0.0049827127794558499 9.2549763498575788e-05 0.0834934888667241
0.00941570428324396 7.9462825455833819e-05 0.045041530512277148
0.0094017498291656346 0.00014652016604806232 0.045123089454741576
0.0075051468131395538 0.00013857648513409854 0.083443104167535476
0.0069157316477626322 8.8186763261407682e-06 1.5366644167196176e-05
0.0049771135730733076 1.0939592021951851e-05 0.083443359933386571
0.0049847903520919565 0.00017388680494983148 0.083622199363125482
6.0067777565697109e-13 2.2982860924584409e-15 1.7160627879351554e-05
-7.8490758155310467e-18 -3.5444517876851735e-12 0.083482755336088801
4.3183799014433966e-13 -3.5368664898262028e-12 0.083664111249196232
0.0062764690497139567 5.2989503251002161e-05 0.045069910044792091
0.0062660718659916358 9.7341750069715487e-05 0.045147393510053452
0.0034489944076542653 4.4781925637266094e-06 1.6861266493838248e-05
0.0049827127794558499 9.2549763498575788e-05 0.0834934888667241
0.0024825742747474145 5.4733272230949328e-06 0.083472683904193545
0.002486550345330229 8.7083186379901807e-05 0.083653631709738108
2.6493889524116819e-13 -1.9129950539471362e-12 0.045092104125984724
5.3023275858405845e-13 -1.9103396694964668e-12 0.04516800971395489
2.1456524963729046e-13 -3.5422129436779618e-12 0.083533989797182115
0.0031378469768561981 2.6547097895886427e-05 0.04508659485992602
0.0031324085548812474 4.8544978207783135e-05 0.045162741420863559
0.0024854386201399242 4.6379194306488364e-05 0.083523824199361718
0 0 0
-0.0091635279619601238 -0.00019840373956074665 0.034789304963400276
0 0 0
0 0 0
-0.004514762126065784 -8.090835963661471e-05 0.034824741882630822
0 0 0
-0.0051885690741821696 -0.00040135525038502055 0.0098592566500344224
0 0 0
0 0 0
-0.0051930286643247824 -0.00022624833741325615 0.0099661207501356361
-0.0068156416697990937 -0.00012750564104025211 0.034814169023521281
0 0 0
-0.0025521186293116101 -0.00021559337855055758 0.009622133036910157
0 0 0
-0.0025669088536271413 -0.00011936879861865142 0.0097687677504268086
-0.0038523145591200922 -0.0003190760485097843 0.009717474228462912
0 0 0
-0.0038707588567770518 -0.00017387192276655525 0.0098510270358955505
0 0 0
-0.004514762126065784 -8.090835963661471e-05 0.034824741882630822
0 0 0
0 0 0
-3.9472784052616473e-13 -1.4612849468235564e-12 0.034828768866558418
0 0 0
-0.0025521186293116101 -0.00021559337855055758 0.009622133036910157
0 0 0
0 0 0
-0.0025669088536271413 -0.00011936879861865142 0.0097687677504268086
-0.0022489687480481716 -3.9526820312012437e-05 0.034828068099068299
0 0 0
-2.1273565643141681e-13 -4.0791972162775214e-13 0.0095480857463896042
0 0 0
-1.0609979379455035e-13 -4.0162558530538432e-13 0.0097025479830234254
-0.0012713204487154466 -0.00010879537436204399 0.009566363971461286
0 0 0
-0.0012793500916519986 -6.0295965786545936e-05 0.0097190720678071753
-0.0091635279619601238 -0.00019840373956074665 0.034789304963400276
-0.0091670645959947526 3.300163588072073e-05 0.03489910542642316
0 0 0
-0.004514762126065784 -8.090835963661471e-05 0.034824741882630822
-0.0045120092006826987 1.8054996293154686e-05 0.034899259970864224
0 0 0
-0.009176807788312891 -7.3299709461264887e-05 0.03490964970038337
-0.0051930286643247824 -0.00022624833741325615 0.0099661207501356361
-0.0068156416697990937 -0.00012750564104025211 0.034814169023521281
-0.0052023419731172579 -4.3598485480688377e-05 0.010031869887495163
-0.0068137412681138418 2.5182880697855112e-05 0.034903882063352772
0 0 0
-0.0045118298636384595 -2.9447451735150647e-05 0.034880183036079676
-0.0025669088536271413 -0.00011936879861865142 0.0097687677504268086
-0.0025736308916077945 -2.4393153098864429e-05 0.0098308103523700556
-0.0068125875717475132 -4.9124043818974165e-05 0.034892142790117632
-0.0038707588567770518 -0.00017387192276655525 0.0098510270358955505
-0.0038783056218023855 -3.4727131767995008e-05 0.0099132762865032677
-0.004514762126065784 -8.090835963661471e-05 0.034824741882630822
-0.0045120092006826987 1.8054996293154686e-05 0.034899259970864224
0 0 0
-3.9472784052616473e-13 -1.4612849468235564e-12 0.034828768866558418
1.547398846708868e-15 -1.4559036629259826e-12 0.034891552612807991
0 0 0
-0.0045118298636384595 -2.9447451735150647e-05 0.034880183036079676
-0.0025669088536271413 -0.00011936879861865142 0.0097687677504268086
-0.0022489687480481716 -3.9526820312012437e-05 0.034828068099068299
-0.0025736308916077945 -2.4393153098864429e-05 0.0098308103523700556
-0.0022472003888161819 9.7064099377756686e-06 0.034893735185941674
0 0 0
-1.9397318322338783e-13 -1.4576629517541429e-12 0.034872015327801056
-1.0609979379455035e-13 -4.0162558530538432e-13 0.0097025479830234254
-4.9835876983662858e-16 -3.9981250692429768e-13 0.0097657933753687795
-0.0022471202886725347 -1.4115427796554774e-05 0.034874048242225703
-0.0012793500916519986 -6.0295965786545936e-05 0.0097190720678071753
-0.0012832951744983431 -1.2618518139644315e-05 0.0097818941995046968
-0.0091635279619601238 -0.00019840373956074665 0.034789304963400276
-0.0077734489010832276 0.00028949486392968024 0.095650616575519237
-0.0091670645959947526 3.300163588072073e-05 0.03489910542642316
-0.004514762126065784 -8.090835963661471e-05 0.034824741882630822
-0.0038126754419501143 0.00014300973238896719 0.095734309944603635
-0.0045120092006826987 1.8054996293154686e-05 0.034899259970864224
-0.0091395255610958372 5.3222616791569479e-05 0.066425362038075059
-0.009176807788312891 -7.3299709461264887e-05 0.03490964970038337
-0.0068156416697990937 -0.00012750564104025211 0.034814169023521281
-0.0091507623041513636 3.877039824771723e-05 0.066418041893036295
-0.005762811420708165 0.00021642036808745639 0.095698100472990461
-0.0068137412681138418 2.5182880697855112e-05 0.034903882063352772
-0.0045630017307481474 3.4164048145635929e-05 0.066463573581035579
-0.0045118298636384595 -2.9447451735150647e-05 0.034880183036079676
-0.0045736131171705665 1.9409442551550138e-05 0.066441405218870292
-0.0068491707191426637 5.1346728647190944e-05 0.066450707946417067
-0.0068125875717475132 -4.9124043818974165e-05 0.034892142790117632
-0.0068636841593010967 2.7302067396348438e-05 0.066432054778347696
-0.004514762126065784 -8.090835963661471e-05 0.034824741882630822
-0.0038126754419501143 0.00014300973238896719 0.095734309944603635
-0.0045120092006826987 1.8054996293154686e-05 0.034899259970864224
-3.9472784052616473e-13 -1.4612849468235564e-12 0.034828768866558418
-3.3712036443734175e-13 -4.0286686999877523e-12 0.095765480390489099
1.547398846708868e-15 -1.4559036629259826e-12 0.034891552612807991
-0.0045630017307481474 3.4164048145635929e-05 0.066463573581035579
-0.0045118298636384595 -2.9447451735150647e-05 0.034880183036079676
-0.0022489687480481716 -3.9526820312012437e-05 0.034828068099068299
-0.0045736131171705665 1.9409442551550138e-05 0.066441405218870292
-0.0018981278088555445 7.1488361452117251e-05 0.095757558094236431
-0.0022472003888161819 9.7064099377756686e-06 0.034893735185941674
-3.8469019376208167e-13 -2.7921629344265589e-12 0.06647233850116839
-1.9397318322338783e-13 -1.4576629517541429e-12 0.034872015327801056
-1.9213600951779995e-13 -2.7933668875684274e-12 0.066448671243730009
-0.0022804729370413512 1.7511641802421899e-05 0.066470330905743016
-0.0022471202886725347 -1.4115427796554774e-05 0.034874048242225703
-0.0022860236004615142 9.7046876890556849e-06 0.06644686322874338
-0.0077734489010832276 0.00028949486392968024 0.095650616575519237
0.00077817134056081384 0.0004697713057419153 0.1208515676873473
-0.0077878192243812294 2.3490580496838065e-05 0.095470651711890689
-0.0038126754419501143 0.00014300973238896719 0.095734309944603635
0.00040632099600029315 0.00023475543114877341 0.12100520720203613
-0.0038327183075758898 1.2562204261014044e-05 0.09556593482177704
-0.003791313220983908 0.00040442295362585334 0.11546590188390052
-0.007788916548306218 0.00016044269545258349 0.095525043211562174
-0.005762811420708165 0.00021642036808745639 0.095698100472990461
-0.0037962070340510088 0.00021780297180882499 0.11532010983672487
0.00060176383098146859 0.00035159646366634715 0.12093874168520809
-0.0057869854552352719 1.871999241773575e-05 0.095525835968224324
-0.0019001600211438932 0.00020520395469264823 0.11561932319353298
-0.0038251641490895634 7.7903982153675882e-05 0.095618929910519276
-0.0018990432835420954 0.00010978742240197449 0.11546686683580248
-0.0028495265316261687 0.00030727945154417806 0.11555743428180125
-0.0057783363964466917 0.00011711538327741826 0.095579261641727933
-0.002848987432947521 0.00016448782731378616 0.11540637405549276
-0.0038126754419501143 0.00014300973238896719 0.095734309944603635
0.00040632099600029315 0.00023475543114877341 0.12100520720203613
-0.0038327183075758898 1.2562204261014044e-05 0.09556593482177704
-3.3712036443734175e-13 -4.0286686999877523e-12 0.095765480390489099
3.0401798035889138e-14 -5.1101610255907846e-12 0.12105997546933528
5.7846131697402216e-16 -4.0327264341150504e-12 0.095598370535088184
-0.0019001600211438932 0.00020520395469264823 0.11561932319353298
-0.0038251641490895634 7.7903982153675882e-05 0.095618929910519276
-0.0018981278088555445 7.1488361452117251e-05 0.095757558094236431
-0.0018990432835420954 0.00010978742240197449 0.11546686683580248
0.0002043826116093027 0.00011740623181863987 0.12104609167936964
-0.0019090787436587659 6.3212544489633559e-06 0.095590240784603889
-1.6225744149063486e-13 -4.8787846406104917e-12 0.11566758176150742
-1.6649188058454027e-13 -4.0320287703259758e-12 0.095650975357581131
-8.0948552073755358e-14 -4.8850438648607147e-12 0.11551455886606816
-0.00094997856044709648 0.00010269146288438551 0.1156556958081577
-0.0019048296867892577 3.890342990432115e-05 0.09564289462873142
-0.00094934143281368726 5.4899241780640218e-05 0.11550271884786234
-0.0091670645959947526 3.300163588072073e-05 0.03489910542642316
-0.0077734489010832276 0.00028949486392968024 0.095650616575519237
-0.0077878192243812294 2.3490580496838065e-05 0.095470651711890689
-0.0045120092006826987 1.8054996293154686e-05 0.034899259970864224
-0.0038126754419501143 0.00014300973238896719 0.095734309944603635
-0.0038327183075758898 1.2562204261014044e-05 0.09556593482177704
-0.0091507623041513636 3.877039824771723e-05 0.066418041893036295
-0.0091530733446131846 6.579480809998704e-06 0.066408081312744102
-0.0068137412681138418 2.5182880697855112e-05 0.034903882063352772
-0.007788916548306218 0.00016044269545258349 0.095525043211562174
-0.005762811420708165 0.00021642036808745639 0.095698100472990461
-0.0057869854552352719 1.871999241773575e-05 0.095525835968224324
-0.0045736131171705665 1.9409442551550138e-05 0.066441405218870292
-0.0045766417850461281 4.7339984199190826e-06 0.066430646444256794
-0.0038251641490895634 7.7903982153675882e-05 0.095618929910519276
-0.0068636841593010959 2.7302067396348424e-05 0.066432054778347696
-0.0068662311923236774 8.2348885715967032e-06 0.06642117666111097
-0.0057783363964466917 0.00011711538327741826 0.095579261641727933
-0.0045120092006826987 1.8054996293154686e-05 0.034899259970864224
-0.0038126754419501143 0.00014300973238896719 0.095734309944603635
-0.0038327183075758898 1.2562204261014044e-05 0.09556593482177704
1.547398846708868e-15 -1.4559036629259826e-12 0.034891552612807991
-3.3712036443734175e-13 -4.0286686999877523e-12 0.095765480390489099
5.7846131697402216e-16 -4.0327264341150504e-12 0.095598370535088184
-0.0045736131171705665 1.9409442551550138e-05 0.066441405218870292
-0.0045766417850461281 4.7339984199190826e-06 0.066430646444256794
-0.0022472003888161819 9.7064099377756686e-06 0.034893735185941674
-0.0038251641490895634 7.7903982153675882e-05 0.095618929910519276
-0.0018981278088555445 7.1488361452117251e-05 0.095757558094236431
-0.0019090787436587659 6.3212544489633559e-06 0.095590240784603889
-1.9213600951779995e-13 -2.7933668875684274e-12 0.066448671243730009
2.4244461916216662e-18 -2.7942334372151908e-12 0.06643786833393453
-1.6649188058454027e-13 -4.0320287703259758e-12 0.095650975357581131
-0.0022860236004615142 9.7046876890556849e-06 0.06644686322874338
-0.0022877190890559741 2.5247242143481781e-06 0.066436095769058817
-0.0019048296867892577 3.890342990432115e-05 0.09564289462873142
0.00077133432961387074 2.5166104548260565e-05 0.12059326356049657
0.00077817134056081384 0.0004697713057419153 0.1208515676873473
0.010064765197371796 0.00034429729681764487 0.083497294539137554
0.00038444747440532882 1.2523827267877315e-05 0.12075045211161389
0.00040632099600029315 0.00023475543114877341 0.12100520720203613
0.0049847903520919565 0.00017388680494983148 0.083622199363125482
0.00077488901268199257 0.00024744297095263888 0.12066108257999902
0.0056105616430841146 0.00023123960574029484 0.10985077864998581
0.000575094975022472 1.8879321370676456e-05 0.12068286270483458
0.0056066579567853473 0.00044196058226902616 0.11002110387582623
0.00060176383098146859 0.00035159646366634715 0.12093874168520809
0.0075073123526648812 0.00025920609339908388 0.083569599703238018
0.0003952026769619516 0.00012341952964383692 0.12082420334732731
0.0028053377328716511 0.00011564252434909466 0.11000974896445354
0.0027966959601424314 0.0002196070395715229 0.11017581234555537
0.00058835164173297934 0.00018528688852349111 0.12075607763143514
0.0042085046256169854 0.00017315388629590535 0.10994352308195317
0.0041974143579744877 0.00032958676747440574 0.11011169162399019
0.00038444747440532882 1.2523827267877315e-05 0.12075045211161389
0.00040632099600029315 0.00023475543114877341 0.12100520720203613
0.0049847903520919565 0.00017388680494983148 0.083622199363125482
3.5592732732792573e-17 -5.1190577790469793e-12 0.12080592941654776
3.0401798035889138e-14 -5.1101610255907846e-12 0.12105997546933528
4.3183799014433966e-13 -3.5368664898262028e-12 0.083664111249196232
0.0003952026769619516 0.00012341952964383692 0.12082420334732731
0.0028053377328716511 0.00011564252434909466 0.11000974896445354
0.00019270789892610681 6.2702766865422394e-06 0.12079192742546632
0.0027966959601424314 0.0002196070395715229 0.11017581234555537
0.0002043826116093027 0.00011740623181863987 0.12104609167936964
0.002486550345330229 8.7083186379901807e-05 0.083653631709738108
1.5411763523659648e-14 -5.1168660353348466e-12 0.12087922069144219
1.1782823705207693e-13 -4.6686949125747419e-12 0.11006184613050479
2.3557401071059934e-13 -4.6620230380782696e-12 0.11022702149995725
0.00019843728025686607 6.1765543247925095e-05 0.12086539878355017
0.0014025074044198634 5.7835255773840189e-05 0.11004889635670527
0.0013979671939953035 0.00010976915706214991 0.11021425971009129
-0.0077878192243812294 2.3490580496838065e-05 0.095470651711890689
0.00077817134056081384 0.0004697713057419153 0.1208515676873473
0.00077133432961387074 2.5166104548260565e-05 0.12059326356049657
-0.0038327183075758898 1.2562204261014044e-05 0.09556593482177704
0.00040632099600029315 0.00023475543114877341 0.12100520720203613
0.00038444747440532882 1.2523827267877315e-05 0.12075045211161389
-0.0037962070340510088 0.00021780297180882499 0.11532010983672487
-0.0037973621894220374 2.7133143693110046e-05 0.11526692932881774
-0.0057869854552352719 1.871999241773575e-05 0.095525835968224324
0.00077488901268199257 0.00024744297095263888 0.12066108257999902
0.00060176383098146859 0.00035159646366634715 0.12093874168520809
0.000575094975022472 1.8879321370676456e-05 0.12068286270483458
-0.0018990432835420954 0.00010978742240197449 0.11546686683580248
-0.001894817084665272 1.3764366071187102e-05 0.11540790642224141
0.0003952026769619516 0.00012341952964383692 0.12082420334732731
-0.002848987432947521 0.00016448782731378616 0.11540637405549274
-0.002843620724242745 2.044464551289573e-05 0.11534904188793772
0.00058835164173297934 0.00018528688852349111 0.12075607763143514
-0.0038327183075758898 1.2562204261014044e-05 0.09556593482177704
0.00040632099600029315 0.00023475543114877341 0.12100520720203613
0.00038444747440532882 1.2523827267877315e-05 0.12075045211161389
5.7846131697402216e-16 -4.0327264341150504e-12 0.095598370535088184
3.0401798035889138e-14 -5.1101610255907846e-12 0.12105997546933528
3.5592732732792573e-17 -5.1190577790469793e-12 0.12080592941654776
-0.0018990432835420954 0.00010978742240197449 0.11546686683580248
-0.001894817084665272 1.3764366071187102e-05 0.11540790642224141
-0.0019090787436587659 6.3212544489633559e-06 0.095590240784603889
0.0003952026769619516 0.00012341952964383692 0.12082420334732731
0.0002043826116093027 0.00011740623181863987 0.12104609167936964
0.00019270789892610681 6.2702766865422394e-06 0.12079192742546632
-8.0948552073755358e-14 -4.8850438648607147e-12 0.11551455886606816
7.6236173404829948e-17 -4.8872580770747128e-12 0.1154548862868907
1.5411763523659648e-14 -5.1168660353348466e-12 0.12087922069144219