# vtk DataFile Version 4.2
u
ASCII
DATASET UNSTRUCTURED_GRID

POINTS 2880 double
0.59999999999999976 0.014999999999999999 0 0.5 0.029999999999999999 0 0.5 0.014999999999999999 0 0.59999999999999976 0.014999999999999999 0.0074999999999999997 0.5 0.029999999999999999 0.0074999999999999997 0.5 0.014999999999999999 0.0074999999999999997 0.54999999999999982 0.022499999999999999 0 0.54999999999999982 0.014999999999999999 0 0.59999999999999976 0.014999999999999999 0.0037499999999999999 0.5 0.022499999999999999 0 0.5 0.029999999999999999 0.0037499999999999999 0.5 0.014999999999999999 0.0037499999999999999 0.54999999999999982 0.022499999999999999 0.0074999999999999997 0.54999999999999982 0.014999999999999999 0.0074999999999999997 0.5 0.022499999999999999 0.0074999999999999997 0.54999999999999982 0.022499999999999999 0.0037499999999999999 0.54999999999999982 0.014999999999999999 0.0037499999999999999 0.5 0.022499999999999999 0.0037499999999999999 
0.59999999999999976 0.014999999999999999 0.0074999999999999997 0.5 0.029999999999999999 0.0074999999999999997 0.5 0.014999999999999999 0.0074999999999999997 0.59999999999999976 0.014999999999999999 0.014999999999999999 0.5 0.029999999999999999 0.014999999999999999 0.5 0.014999999999999999 0.014999999999999999 0.54999999999999982 0.022499999999999999 0.0074999999999999997 0.54999999999999982 0.014999999999999999 0.0074999999999999997 0.59999999999999976 0.014999999999999999 0.01125 0.5 0.022499999999999999 0.0074999999999999997 0.5 0.029999999999999999 0.01125 0.5 0.014999999999999999 0.01125 0.54999999999999982 0.022499999999999999 0.014999999999999999 0.54999999999999982 0.014999999999999999 0.014999999999999999 0.5 0.022499999999999999 0.014999999999999999 0.54999999999999982 0.022499999999999999 0.01125 0.54999999999999982 0.014999999999999999 0.01125 0.5 0.022499999999999999 0.01125 
0.5 0.029999999999999999 0 0.59999999999999976 0.014999999999999999 0 0.60000000000000009 0.029999999999999999 0 0.5 0.029999999999999999 0.0074999999999999997 0.59999999999999976 0.014999999999999999 0.0074999999999999997 0.60000000000000009 0.029999999999999999 0.0074999999999999997 0.54999999999999982 0.022499999999999999 0 0.55000000000000004 0.029999999999999999 0 0.5 0.029999999999999999 0.0037499999999999999 0.59999999999999987 0.022499999999999999 0 0.59999999999999976 0.014999999999999999 0.0037499999999999999 0.60000000000000009 0.029999999999999999 0.0037499999999999999 0.54999999999999982 0.022499999999999999 0.0074999999999999997 0.55000000000000004 0.029999999999999999 0.0074999999999999997 0.59999999999999987 0.022499999999999999 0.0074999999999999997 0.54999999999999982 0.022499999999999999 0.0037499999999999999 0.55000000000000004 0.029999999999999999 0.0037499999999999999 0.59999999999999987 0.022499999999999999 0.0037499999999999999 
0.5 0.029999999999999999 0.0074999999999999997 0.59999999999999976 0.014999999999999999 0.0074999999999999997 0.60000000000000009 0.029999999999999999 0.0074999999999999997 0.5 0.029999999999999999 0.014999999999999999 0.59999999999999976 0.014999999999999999 0.014999999999999999 0.60000000000000009 0.029999999999999999 0.014999999999999999 0.54999999999999982 0.022499999999999999 0.0074999999999999997 0.55000000000000004 0.029999999999999999 0.0074999999999999997 0.5 0.029999999999999999 0.01125 0.59999999999999987 0.022499999999999999 0.0074999999999999997 0.59999999999999976 0.014999999999999999 0.01125 0.60000000000000009 0.029999999999999999 0.01125 0.54999999999999982 0.022499999999999999 0.014999999999999999 0.55000000000000004 0.029999999999999999 0.014999999999999999 0.59999999999999987 0.022499999999999999 0.014999999999999999 0.54999999999999982 0.022499999999999999 0.01125 0.55000000000000004 0.029999999999999999 0.01125 0.59999999999999987 0.022499999999999999 0.01125 
1 0.029999999999999999 0 0.90000000000000024 0.029999999999999999 0 1 0.014999999999999999 0 1 0.029999999999999999 0.0074999999999999997 0.90000000000000024 0.029999999999999999 0.0074999999999999997 1 0.014999999999999999 0.0074999999999999997 0.95000000000000018 0.029999999999999999 0 1 0.022499999999999999 0 1 0.029999999999999999 0.0037499999999999999 0.95000000000000018 0.022499999999999999 0 0.90000000000000024 0.029999999999999999 0.0037499999999999999 1 0.014999999999999999 0.0037499999999999999 0.95000000000000018 0.029999999999999999 0.0074999999999999997 1 0.022499999999999999 0.0074999999999999997 0.95000000000000018 0.022499999999999999 0.0074999999999999997 0.95000000000000018 0.029999999999999999 0.0037499999999999999 1 0.022499999999999999 0.0037499999999999999 0.95000000000000018 0.022499999999999999 0.0037499999999999999 
1 0.029999999999999999 0.0074999999999999997 0.90000000000000024 0.029999999999999999 0.0074999999999999997 1 0.014999999999999999 0.0074999999999999997 1 0.029999999999999999 0.014999999999999999 0.90000000000000024 0.029999999999999999 0.014999999999999999 1 0.014999999999999999 0.014999999999999999 0.95000000000000018 0.029999999999999999 0.0074999999999999997 1 0.022499999999999999 0.0074999999999999997 1 0.029999999999999999 0.01125 0.95000000000000018 0.022499999999999999 0.0074999999999999997 0.90000000000000024 0.029999999999999999 0.01125 1 0.014999999999999999 0.01125 0.95000000000000018 0.029999999999999999 0.014999999999999999 1 0.022499999999999999 0.014999999999999999 0.95000000000000018 0.022499999999999999 0.014999999999999999 0.95000000000000018 0.029999999999999999 0.01125 1 0.022499999999999999 0.01125 0.95000000000000018 0.022499999999999999 0.01125 
0.90000000000000024 0.029999999999999999 0 0.89999999999999991 0.014999999999999999 0 1 0.014999999999999999 0 0.90000000000000024 0.029999999999999999 0.0074999999999999997 0.89999999999999991 0.014999999999999999 0.0074999999999999997 1 0.014999999999999999 0.0074999999999999997 0.90000000000000013 0.022499999999999999 0 0.95000000000000018 0.022499999999999999 0 0.90000000000000024 0.029999999999999999 0.0037499999999999999 0.94999999999999996 0.014999999999999999 0 0.89999999999999991 0.014999999999999999 0.0037499999999999999 1 0.014999999999999999 0.0037499999999999999 0.90000000000000013 0.022499999999999999 0.0074999999999999997 0.95000000000000018 0.022499999999999999 0.0074999999999999997 0.94999999999999996 0.014999999999999999 0.0074999999999999997 0.90000000000000013 0.022499999999999999 0.0037499999999999999 0.95000000000000018 0.022499999999999999 0.0037499999999999999 0.94999999999999996 0.014999999999999999 0.0037499999999999999 
0.90000000000000024 0.029999999999999999 0.0074999999999999997 0.89999999999999991 0.014999999999999999 0.0074999999999999997 1 0.014999999999999999 0.0074999999999999997 0.90000000000000024 0.029999999999999999 0.014999999999999999 0.89999999999999991 0.014999999999999999 0.014999999999999999 1 0.014999999999999999 0.014999999999999999 0.90000000000000013 0.022499999999999999 0.0074999999999999997 0.95000000000000018 0.022499999999999999 0.0074999999999999997 0.90000000000000024 0.029999999999999999 0.01125 0.94999999999999996 0.014999999999999999 0.0074999999999999997 0.89999999999999991 0.014999999999999999 0.01125 1 0.014999999999999999 0.01125 0.90000000000000013 0.022499999999999999 0.014999999999999999 0.95000000000000018 0.022499999999999999 0.014999999999999999 0.94999999999999996 0.014999999999999999 0.014999999999999999 0.90000000000000013 0.022499999999999999 0.01125 0.95000000000000018 0.022499999999999999 0.01125 0.94999999999999996 0.014999999999999999 0.01125 
0.90000000000000024 0.029999999999999999 0 0.80000000000000016 0.029999999999999999 0 0.89999999999999991 0.014999999999999999 0 0.90000000000000024 0.029999999999999999 0.0074999999999999997 0.80000000000000016 0.029999999999999999 0.0074999999999999997 0.89999999999999991 0.014999999999999999 0.0074999999999999997 0.8500000000000002 0.029999999999999999 0 0.90000000000000013 0.022499999999999999 0 0.90000000000000024 0.029999999999999999 0.0037499999999999999 0.85000000000000009 0.022499999999999999 0 0.80000000000000016 0.029999999999999999 0.0037499999999999999 0.89999999999999991 0.014999999999999999 0.0037499999999999999 0.8500000000000002 0.029999999999999999 0.0074999999999999997 0.90000000000000013 0.022499999999999999 0.0074999999999999997 0.85000000000000009 0.022499999999999999 0.0074999999999999997 0.8500000000000002 0.029999999999999999 0.0037499999999999999 0.90000000000000013 0.022499999999999999 0.0037499999999999999 0.85000000000000009 0.022499999999999999 0.0037499999999999999 
0.90000000000000024 0.029999999999999999 0.0074999999999999997 0.80000000000000016 0.029999999999999999 0.0074999999999999997 0.89999999999999991 0.014999999999999999 0.0074999999999999997 0.90000000000000024 0.029999999999999999 0.014999999999999999 0.80000000000000016 0.029999999999999999 0.014999999999999999 0.89999999999999991 0.014999999999999999 0.014999999999999999 0.8500000000000002 0.029999999999999999 0.0074999999999999997 0.90000000000000013 0.022499999999999999 0.0074999999999999997 0.90000000000000024 0.029999999999999999 0.01125 0.85000000000000009 0.022499999999999999 0.0074999999999999997 0.80000000000000016 0.029999999999999999 0.01125 0.89999999999999991 0.014999999999999999 0.01125 0.8500000000000002 0.029999999999999999 0.014999999999999999 0.90000000000000013 0.022499999999999999 0.014999999999999999 0.85000000000000009 0.022499999999999999 0.014999999999999999 0.8500000000000002 0.029999999999999999 0.01125 0.90000000000000013 0.022499999999999999 0.01125 0.85000000000000009 0.022499999999999999 0.01125 
[...]
POINT_DATA 2880

VECTORS u double
-5.3935534449742747e-06 0.083741357372454972 3.4225145181607175e-06
-0.014136766765094384 9.6179197930366001e-05 4.0673443832338132e-05
-1.4385994047267191e-05 0.00011592638482290087 -3.650385578861899e-06
-6.4135803210359116e-06 0.083618224858217211 1.1418739593804115e-06
-0.014149890974562762 8.2410376891620905e-05 1.5071801954020272e-05
-1.5727608750057375e-05 0.00011210871085668079 -6.7776308880187903e-07
-0.0062350154701140501 0.045259981012027765 9.4747435283656361e-05
-1.9576988162730435e-06 0.045275325706326211 -1.8102441368157972e-06
-6.1647419517056808e-06 0.083669644416512381 2.1159192086569487e-06
-0.0070228666929356446 0.00010641364708300737 1.2811878175851895e-05
-0.014146559765321639 8.7051808491981917e-05 2.6050151925058525e-05
-1.5216206764798997e-05 0.00011498423627831656 -1.9573315591044431e-06
-0.0062415273478774068 0.04519835945030426 4.3972949819520173e-05
-1.1756269818570844e-06 0.045210975820175435 -1.1874441855568333e-06
-0.0070346338119498747 9.3974778857703123e-05 6.0303460930182848e-06
-0.0062387322416405534 0.045224581992994513 6.8373343957326113e-05
-1.4957875816637692e-06 0.045236089377819456 -1.7776105483952856e-06
-0.0070308936996043292 9.7373841703384526e-05 9.3034227689094264e-06
-6.4135803210359116e-06 0.083618224858217211 1.1418739593804115e-06
-0.014149890974562762 8.2410376891620905e-05 1.5071801954020272e-05
-1.5727608750057375e-05 0.00011210871085668079 -6.7776308880187903e-07
-6.5070251236742309e-06 0.083576848685392779 -3.3811985759674323e-13
-0.014150885046792501 8.0139762668981923e-05 7.6270156369865195e-14
-1.609494924659941e-05 0.00011027512227992814 8.5286104284732745e-14
-0.0062415273478774068 0.04519835945030426 4.3972949819520173e-05
-1.1756269818570844e-06 0.045210975820175435 -1.1874441855568333e-06
-6.4952712099831185e-06 0.083587163012792842 5.0805600778150683e-07
-0.0070346338119498747 9.3974778857703123e-05 6.0303460930182848e-06
-0.01415077721408564 8.0644181734787452e-05 6.9534852378433282e-06
-1.6009993895726349e-05 0.00011075072851460112 -1.8432208160121036e-07
-0.0062434671656574573 0.045177306391921565 -1.4582866798422024e-13
-9.8908272723384981e-07 0.045190772714934269 -1.4105430647798378e-13
-0.0070366684103706284 9.2122694357553073e-05 8.0757607608482504e-14
-0.0062430003604093806 0.045182606232337164 2.1654534882906033e-05
-1.0320502085429007e-06 0.045195797379222975 -5.9118812878853947e-07
-0.0070362521934134274 9.2476436454728695e-05 2.937432462822213e-06
-0.014136766765094384 9.6179197930366001e-05 4.0673443832338132e-05
-5.3935534449742747e-06 0.083741357372454972 3.4225145181607175e-06
-0.010156320247109741 0.083569820625557886 0.00033581504629243402
-0.014149890974562762 8.2410376891620905e-05 1.5071801954020272e-05
-6.4135803210359116e-06 0.083618224858217211 1.1418739593804115e-06
-0.010167391123683797 0.083440180908489148 0.00016670761226599736
-0.0062350154701140501 0.045259981012027765 9.4747435283656361e-05
-0.012477323674831859 0.04519267312449584 0.0001566420346021703
-0.014146559765321639 8.7051808491981917e-05 2.6050151925058525e-05
-0.0050459316152369395 0.08369091827724956 0.00016497053122218407
-6.1647419517056808e-06 0.083669644416512381 2.1159192086569487e-06
-0.01016475147729177 0.08349171274464022 0.00025045753923712619
-0.0062415273478774068 0.04519835945030426 4.3972949819520173e-05
-0.012487377380455541 0.045136222510130782 8.2691014049775176e-05
-0.0050541403815228805 0.083566122528539621 8.2848194344132723e-05
-0.0062387322416405534 0.045224581992994513 6.8373343957326113e-05
-0.012484596336605478 0.045162177010203627 0.00012162701033651788
-0.0050512730888129746 0.083618104210350888 0.00012382094442622488
-0.014149890974562762 8.2410376891620905e-05 1.5071801954020272e-05
-6.4135803210359116e-06 0.083618224858217211 1.1418739593804115e-06
-0.010167391123683797 0.083440180908489148 0.00016670761226599736
-0.014150885046792501 8.0139762668981923e-05 7.6270156369865195e-14
-6.5070251236742309e-06 0.083576848685392779 -3.3811985759674323e-13
-0.01016825351359962 0.083399113312930664 -3.4877752087775242e-13
-0.0062415273478774068 0.04519835945030426 4.3972949819520173e-05
-0.012487377380455541 0.045136222510130782 8.2691014049775176e-05
-0.01415077721408564 8.0644181734787452e-05 6.9534852378433282e-06
-0.0050541403815228805 0.083566122528539621 8.2848194344132723e-05
-6.4952712099831185e-06 0.083587163012792842 5.0805600778150683e-07
-0.010168157405965359 0.083409302475715541 8.3322620407458913e-05
-0.0062434671656574573 0.045177306391921565 -1.4582866798422024e-13
-0.012488751856552417 0.045114666993039121 -1.509183868316439e-13
-0.0050557134072191498 0.083524755257199088 -3.4321474209195581e-13
-0.0062430003604093806 0.045182606232337157 2.1654534882906033e-05
-0.012488489950463706 0.045120106814770369 4.1664437153891509e-05
-0.0050553771318167032 0.083535111716142196 4.1483903719297552e-05
0 0 0
0.0092646428847944426 0.034352793464935936 -0.00015759812553596132
0 0 0
0 0 0
0.0093049091891836393 0.034436614135105487 -8.7874558271042289e-05
0 0 0
0.0050330831890041663 0.0093579143014642374 -0.00052689123504803771
0 0 0
0 0 0
0.0024991546948681239 0.0092233404394706838 -0.00024027434492519714
0.0092961852336714626 0.034411072173500208 -0.00012511907891929764
0 0 0
0.0050170581031403682 0.0095587248162122343 -0.00024559107573851786
0 0 0
0.0025009283473850022 0.009412795004858367 -0.00012083482571126598
0.0050204399642221715 0.0094794803018683604 -0.00037975306209470441
0 0 0
0.0025013554383151444 0.0093378891453480065 -0.00018084608025021516
0 0 0
0.0093049091891836393 0.034436614135105487 -8.7874558271042289e-05
0 0 0
0 0 0
0.0093071489865360155 0.03445861087256738 -1.678862390365353e-13
0 0 0
0.0050170581031403682 0.0095587248162122343 -0.00024559107573851786
0 0 0
0 0 0
0.0025009283473850022 0.009412795004858367 -0.00012083482571126598
0.0093070629444416773 0.034453508593415894 -4.4964049983382449e-05
0 0 0
0.0050155243812195979 0.0096183539337584695 -4.698693160538674e-14
0 0 0
0.0025009328279793981 0.0094698776855191638 -4.6989275587131578e-14
0.0050157546200746911 0.0096036122521528672 -0.00012079317742960208
0 0 0
0.0025009643301685657 0.0094560376618794788 -6.0225157704496259e-05
0.0092646428847944426 0.034352793464935936 -0.00015759812553596132
-2.2367427647300816e-05 0.034248881379087 -5.1023293786532295e-05
0 0 0
0.0093049091891836393 0.034436614135105487 -8.7874558271042289e-05
-3.5647554263756947e-05 0.034311227356376192 -1.9505644888379409e-05
0 0 0
0.0045532031123176409 0.034295079416740697 -0.00010156725963026161
0.0024991546948681239 0.0092233404394706838 -0.00024027434492519714
0.0092961852336714626 0.034411072173500208 -0.00012511907891929764
1.9117429433961542e-06 0.0091902568594377787 1.667224043847087e-05
-3.1292202967004238e-05 0.03428868358210236 -3.3464466346155699e-05
0 0 0
0.0045702360142546323 0.034351352622044626 -4.9546591176061571e-05
0.0025009283473850022 0.009412795004858367 -0.00012083482571126598
8.9231975115391699e-06 0.0093711614425328917 9.7223419086937395e-06
0.0045642734079814357 0.034322851899627527 -7.4439670990681362e-05
0.0025013554383151444 0.0093378891453480065 -0.00018084608025021516
5.9998408768440016e-06 0.0092998790824698717 1.3882246849256517e-05
0.0093049091891836393 0.034436614135105487 -8.7874558271042289e-05
-3.5647554263756947e-05 0.034311227356376192 -1.9505644888379409e-05
0 0 0
0.0093071489865360155 0.03445861087256738 -1.678862390365353e-13
-3.7632458238257494e-05 0.034331447314720216 -1.6516559046422396e-13
0 0 0
0.0045702360142546323 0.034351352622044626 -4.9546591176061571e-05
0.0025009283473850022 0.009412795004858367 -0.00012083482571126598
0.0093070629444416773 0.034453508593415894 -4.4964049983382449e-05
8.9231975115391699e-06 0.0093711614425328917 9.7223419086937395e-06
-3.7222637748924658e-05 0.034326488313626599 -9.0865038168896603e-06
0 0 0
0.0045729732215327827 0.03437318575298591 -1.6657051833035888e-13
0.0025009328279793981 0.0094698776855191638 -4.6989275587131578e-14
1.0709478538986434e-05 0.0094269890816754982 -4.6564210572019575e-14
0.0045724272329410506 0.034367403916416329 -2.4791420950068453e-05
0.0025009643301685657 0.0094560376618794788 -6.0225157704496259e-05
1.0285445550686932e-05 0.0094133067771494609 4.7002937060136215e-06
0.0092646428847944426 0.034352793464935936 -0.00015759812553596132
0.0079358555607594011 0.095095734612477542 0.00019233101469731331
-2.2367427647300816e-05 0.034248881379087 -5.1023293786532295e-05
0.0093049091891836393 0.034436614135105487 -8.7874558271042289e-05
0.0079450728404501115 0.095021073923564306 0.00010358013411655165
-3.5647554263756947e-05 0.034311227356376192 -1.9505644888379409e-05
0.0090533249997447208 0.065892516765734252 0.00010274452748060885
0.0045532031123176409 0.034295079416740697 -0.00010156725963026161
0.0092961852336714626 0.034411072173500208 -0.00012511907891929764
0.0045159449452226675 0.065912144245824408 2.8953032979492772e-05
0.007943090431983069 0.095053493008825776 0.00015012193375046648
-3.1292202967004238e-05 0.03428868358210236 -3.3464466346155699e-05
0.0090655183667257052 0.065850561207486266 4.3669845570818257e-05
0.0045702360142546323 0.034351352622044626 -4.9546591176061571e-05
0.0045251051753956578 0.065878632313461791 1.7114612620132319e-05
0.0090614086035049543 0.065865460653982189 7.1261476844516449e-05
0.0045642734079814357 0.034322851899627527 -7.4439670990681362e-05
0.0045212880000946379 0.065891836225087402 2.2938876065989575e-05
0.0093049091891836393 0.034436614135105487 -8.7874558271042289e-05
0.0079450728404501115 0.095021073923564306 0.00010358013411655165
-3.5647554263756947e-05 0.034311227356376192 -1.9505644888379409e-05
0.0093071489865360155 0.03445861087256738 -1.678862390365353e-13
0.0079451447288574062 0.094992627814142819 -4.5292976595421635e-13
-3.7632458238257494e-05 0.034331447314720216 -1.6516559046422396e-13
0.0090655183667257052 0.065850561207486266 4.3669845570818257e-05
0.0045702360142546323 0.034351352622044626 -4.9546591176061571e-05
0.0093070629444416773 0.034453508593415894 -4.4964049983382449e-05
0.0045251051753956578 0.065878632313461791 1.7114612620132319e-05
0.00794524405784767 0.094999790987534263 5.2664396914126413e-05
-3.7222637748924658e-05 0.034326488313626599 -9.0865038168896603e-06
0.0090682841086375827 0.065842050561295606 -3.1689915892930047e-13
0.0045729732215327827 0.03437318575298591 -1.6657051833035888e-13
0.0045280881126711671 0.065870384682786637 -3.1443251445065126e-13
0.0090676513479322884 0.065844100243542383 2.102717559833748e-05
0.0045724272329410506 0.034367403916416329 -2.4791420950068453e-05
0.004527365254982773 0.065872355241035394 8.8482310134507011e-06
0.0079358555607594011 0.095095734612477542 0.00019233101469731331
-0.00072779673831796596 0.12067392772638395 0.00041199199390087068
-1.2636783913412703e-05 0.095206174485717124 4.7168376046053566e-06
0.0079450728404501115 0.095021073923564306 0.00010358013411655165
-0.00073017984075350367 0.12051032525149767 0.00020963236204624185
-1.6101621608845862e-05 0.095115229239235585 1.9798262897297304e-06
0.0038101511210597355 0.11523850362199678 0.00042096602640884592
0.0039130838071152812 0.095177500162851605 0.00010478182528657795
0.007943090431983069 0.095053493008825776 0.00015012193375046648
0.0018999072536185961 0.11538284620400416 0.00020068622931729077
-0.00072994738564734207 0.12057592531396559 0.00031176862459703124
-1.5397797231154487e-05 0.095150826627455623 3.4517060780377982e-06
0.0038180369432250887 0.11508074729192423 0.00020482736597315324
0.0039212725603510927 0.095100786058561801 5.3637133350063191e-05
0.0019031007976250481 0.11522878318227606 0.00010239178627107883
0.0038160506197329191 0.11514400511105434 0.00031009957179013497
0.0039186836257226777 0.09513556819888036 8.0204736197022933e-05
0.0019013533432324259 0.1152916489390612 0.00015246181866315149
0.0079450728404501115 0.095021073923564306 0.00010358013411655165
-0.00073017984075350367 0.12051032525149767 0.00020963236204624185
-1.6101621608845862e-05 0.095115229239235585 1.9798262897297304e-06
0.0079451447288574062 0.094992627814142819 -4.5292976595421635e-13
-0.00073031016540122534 0.12045746035180001 -5.5688714324848119e-13
-1.6331676105972057e-05 0.095086910896241952 -4.4586664836265437e-13
0.0038180369432250887 0.11508074729192423 0.00020482736597315324
0.0039212725603510927 0.095100786058561801 5.3637133350063191e-05
0.00794524405784767 0.094999790987534263 5.2664396914126413e-05
0.0019031007976250481 0.11522878318227606 0.00010239178627107883
-0.00073031093928610578 0.12047053779375631 0.00010522649526870414
-1.6309834593047229e-05 0.095093955495861124 8.5598279303017246e-07
0.0038190536798133616 0.11503041144000162 -5.4135377747346932e-13
0.0039225500628492374 0.095072078786909778 -4.4918460010026515e-13
0.0019043092428417657 0.11517869709835366 -5.3674398860746324e-13
0.0038188718491730432 0.11504294829937657 0.00010191410498855809
0.0039222988619624912 0.095079398656470332 2.6892461437923308e-05
0.0019040036708586319 0.11519112566252614 5.1299541799226406e-05
-2.2367427647300816e-05 0.034248881379087 -5.1023293786532295e-05
0.0079358555607594011 0.095095734612477542 0.00019233101469731331
-1.2636783913412703e-05 0.095206174485717124 4.7168376046053566e-06
-3.5647554263756947e-05 0.034311227356376192 -1.9505644888379409e-05
0.0079450728404501115 0.095021073923564306 0.00010358013411655165
-1.6101621608845862e-05 0.095115229239235585 1.9798262897297304e-06
0.0045159449452226675 0.065912144245824408 2.8953032979492772e-05
-6.6967373680686781e-06 0.065923117798893163 -9.4673800006712182e-07
-3.1292202967004238e-05 0.03428868358210236 -3.3464466346155699e-05
0.0039130838071152812 0.095177500162851605 0.00010478182528657795
0.007943090431983069 0.095053493008825776 0.00015012193375046648
-1.5397797231154487e-05 0.095150826627455623 3.4517060780377982e-06
0.0045251051753956578 0.065878632313461791 1.7114612620132319e-05
-2.5453942467790796e-06 0.065899420192036817 -2.8051438082504585e-06
0.0039212725603510927 0.095100786058561801 5.3637133350063191e-05
0.0045212880000946387 0.065891836225087402 2.2938876065989575e-05
-3.3772098708867258e-06 0.065909457851430875 -3.0787514643519153e-06
0.0039186836257226777 0.09513556819888036 8.0204736197022933e-05
-3.5647554263756947e-05 0.034311227356376192 -1.9505644888379409e-05
0.0079450728404501115 0.095021073923564306 0.00010358013411655165
-1.6101621608845862e-05 0.095115229239235585 1.9798262897297304e-06
-3.7632458238257494e-05 0.034331447314720216 -1.6516559046422396e-13
0.0079451447288574062 0.094992627814142819 -4.5292976595421635e-13
-1.6331676105972057e-05 0.095086910896241952 -4.4586664836265437e-13
0.0045251051753956578 0.065878632313461791 1.7114612620132319e-05
-2.5453942467790796e-06 0.065899420192036817 -2.8051438082504585e-06
-3.7222637748924658e-05 0.034326488313626599 -9.0865038168896603e-06
0.0039212725603510927 0.095100786058561801 5.3637133350063191e-05
0.00794524405784767 0.094999790987534263 5.2664396914126413e-05
-1.6309834593047229e-05 0.095093955495861124 8.5598279303017246e-07
0.0045280881126711671 0.065870384682786637 -3.1443251445065126e-13
-2.3583581672929198e-06 0.065890984995991456 -3.1203627691043272e-13
0.0039225500628492374 0.095072078786909778 -4.4918460010026515e-13
0.004527365254982773 0.065872355241035394 8.8482310134507011e-06
-2.3670743971917415e-06 0.06589305107258206 -1.3536640933647795e-06
0.0039222988619624912 0.095079398656470332 2.6892461437923308e-05
-4.6945804286268193e-06 0.12088310753179392 4.3513093091908786e-07
-0.00072779673831796596 0.12067392772638395 0.00041199199390087068
-0.010156320247109741 0.083569820625557886 0.00033581504629243402
-5.0900121507815537e-06 0.1207238245346504 -6.958476835416216e-08
-0.00073017984075350367 0.12051032525149767 0.00020963236204624185
-0.010167391123683797 0.083440180908489148 0.00016670761226599736
-0.00037265581954499567 0.1208265729627112 0.00020844325053846668
-0.0027765821703329696 0.11025278669629365 0.00022031176803541692
-5.0203274451278913e-06 0.12078862703916524 1.9676924252787589e-07
-0.0055507940228492125 0.1100940883700857 0.00042769635669411487
-0.00072994738564734207 0.12057592531396559 0.00031176862459703124
-0.01016475147729177 0.08349171274464022 0.00025045753923712619
-0.00037201559192386123 0.12066997357865618 0.00010402360668321348
-0.0027794315112832321 0.11009236840091574 0.00010894248293883436
-0.0055532492633483211 0.1099353783977325 0.00021392790343343967
-0.00037188927973371116 0.12073636500264157 0.00015581100103354183
-0.0027785307800336466 0.11015861929562761 0.00016448457810173931
-0.005552492238914554 0.11000216458545986 0.00032089960648603016
-5.0900121507815537e-06 0.1207238245346504 -6.958476835416216e-08
-0.00073017984075350367 0.12051032525149767 0.00020963236204624185
-0.010167391123683797 0.083440180908489148 0.00016670761226599736
-5.1958124145589831e-06 0.1206709315980198 -5.4680283636111464e-13
-0.00073031016540122534 0.12045746035180001 -5.5688714324848119e-13
-0.01016825351359962 0.083399113312930664 -3.4877752087775242e-13
-0.00037201559192386123 0.12066997357865618 0.00010402360668321348
-0.0027794315112832321 0.11009236840091574 0.00010894248293883436
-5.172429345159331e-06 0.12068411503481682 -8.2755452264888829e-08
-0.0055532492633483211 0.1099353783977325 0.00021392790343343967
-0.00073031093928610578 0.12047053779375631 0.00010522649526870414
-0.010168157405965359 0.083409302475715541 8.3322620407458913e-05
-0.00037209176126563539 0.12061695480997213 -5.5151003594850085e-13
-0.0027801213175723868 0.11003920631822534 -4.8520275093230825e-13
-0.0055536124839829356 0.10988174782384819 -4.9072012376312429e-13
-0.0003720590623422763 0.12063030335498104 5.2116450358679515e-05
-0.002779967137749864 0.11005244400201715 5.429828191700065e-05
-0.005553536357797784 0.10989515752149688 0.00010687759598051257
-1.2636783913412703e-05 0.095206174485717124 4.7168376046053566e-06
-0.00072779673831796596 0.12067392772638395 0.00041199199390087068
-4.6945804286268193e-06 0.12088310753179392 4.3513093091908786e-07
-1.6101621608845862e-05 0.095115229239235585 1.9798262897297304e-06
-0.00073017984075350367 0.12051032525149767 0.00020963236204624185
-5.0900121507815537e-06 0.1207238245346504 -6.958476835416216e-08
0.0018999072536185961 0.11538284620400416 0.00020068622931729077
-3.7523157301459528e-06 0.11543448020986151 3.4733408829524861e-07
-1.5397797231154487e-05 0.095150826627455623 3.4517060780377982e-06
-0.00037265581954499567 0.1208265729627112 0.00020844325053846668
-0.00072994738564734207 0.12057592531396559 0.00031176862459703124
-5.0203274451278913e-06 0.12078862703916524 1.9676924252787589e-07
0.0019031007976250481 0.11522878318227606 0.00010239178627107883
-3.8998163780348531e-06 0.11528165654823883 5.7042401268690279e-07
-0.00037201559192386123 0.12066997357865618 0.00010402360668321348
0.0019013533432324259 0.1152916489390612 0.00015246181866315146
-3.9652742596482537e-06 0.1153454188884009 5.4857490112528627e-07
-0.00037188927973371111 0.12073636500264157 0.00015581100103354183
-1.6101621608845862e-05 0.095115229239235585 1.9798262897297304e-06
-0.00073017984075350367 0.12051032525149767 0.00020963236204624185
-5.0900121507815537e-06 0.1207238245346504 -6.958476835416216e-08
-1.6331676105972057e-05 0.095086910896241952 -4.4586664836265437e-13
-0.00073031016540122534 0.12045746035180001 -5.5688714324848119e-13
-5.1958124145589831e-06 0.1206709315980198 -5.4680283636111464e-13
0.0019031007976250481 0.11522878318227606 0.00010239178627107883
-3.8998163780348531e-06 0.11528165654823883 5.7042401268690279e-07
-1.6309834593047229e-05 0.095093955495861124 8.5598279303017246e-07
-0.00037201559192386123 0.12066997357865618 0.00010402360668321348
-0.00073031093928610578 0.12047053779375631 0.00010522649526870414
-5.172429345159331e-06 0.12068411503481682 -8.2755452264888829e-08
0.0019043092428417657 0.11517869709835366 -5.3674398860746324e-13