# vtk DataFile Version 4.2
u
ASCII
DATASET UNSTRUCTURED_GRID

POINTS 2880 double
0.59999999999999976 0.014999999999999999 0 0.5 0.029999999999999999 0 0.5 0.014999999999999999 0 0.59999999999999976 0.014999999999999999 0.0074999999999999997 0.5 0.029999999999999999 0.0074999999999999997 0.5 0.014999999999999999 0.0074999999999999997 0.54999999999999982 0.022499999999999999 0 0.54999999999999982 0.014999999999999999 0 0.59999999999999976 0.014999999999999999 0.0037499999999999999 0.5 0.022499999999999999 0 0.5 0.029999999999999999 0.0037499999999999999 0.5 0.014999999999999999 0.0037499999999999999 0.54999999999999982 0.022499999999999999 0.0074999999999999997 0.54999999999999982 0.014999999999999999 0.0074999999999999997 0.5 0.022499999999999999 0.0074999999999999997 0.54999999999999982 0.022499999999999999 0.0037499999999999999 0.54999999999999982 0.014999999999999999 0.0037499999999999999 0.5 0.022499999999999999 0.0037499999999999999 
0.59999999999999976 0.014999999999999999 0.0074999999999999997 0.5 0.029999999999999999 0.0074999999999999997 0.5 0.014999999999999999 0.0074999999999999997 0.59999999999999976 0.014999999999999999 0.014999999999999999 0.5 0.029999999999999999 0.014999999999999999 0.5 0.014999999999999999 0.014999999999999999 0.54999999999999982 0.022499999999999999 0.0074999999999999997 0.54999999999999982 0.014999999999999999 0.0074999999999999997 0.59999999999999976 0.014999999999999999 0.01125 0.5 0.022499999999999999 0.0074999999999999997 0.5 0.029999999999999999 0.01125 0.5 0.014999999999999999 0.01125 0.54999999999999982 0.022499999999999999 0.014999999999999999 0.54999999999999982 0.014999999999999999 0.014999999999999999 0.5 0.022499999999999999 0.014999999999999999 0.54999999999999982 0.022499999999999999 0.01125 0.54999999999999982 0.014999999999999999 0.01125 0.5 0.022499999999999999 0.01125 
0.5 0.029999999999999999 0 0.59999999999999976 0.014999999999999999 0 0.60000000000000009 0.029999999999999999 0 0.5 0.029999999999999999 0.0074999999999999997 0.59999999999999976 0.014999999999999999 0.0074999999999999997 0.60000000000000009 0.029999999999999999 0.0074999999999999997 0.54999999999999982 0.022499999999999999 0 0.55000000000000004 0.029999999999999999 0 0.5 0.029999999999999999 0.0037499999999999999 0.59999999999999987 0.022499999999999999 0 0.59999999999999976 0.014999999999999999 0.0037499999999999999 0.60000000000000009 0.029999999999999999 0.0037499999999999999 0.54999999999999982 0.022499999999999999 0.0074999999999999997 0.55000000000000004 0.029999999999999999 0.0074999999999999997 0.59999999999999987 0.022499999999999999 0.0074999999999999997 0.54999999999999982 0.022499999999999999 0.0037499999999999999 0.55000000000000004 0.029999999999999999 0.0037499999999999999 0.59999999999999987 0.022499999999999999 0.0037499999999999999 
0.5 0.029999999999999999 0.0074999999999999997 0.59999999999999976 0.014999999999999999 0.0074999999999999997 0.60000000000000009 0.029999999999999999 0.0074999999999999997 0.5 0.029999999999999999 0.014999999999999999 0.59999999999999976 0.014999999999999999 0.014999999999999999 0.60000000000000009 0.029999999999999999 0.014999999999999999 0.54999999999999982 0.022499999999999999 0.0074999999999999997 0.55000000000000004 0.029999999999999999 0.0074999999999999997 0.5 0.029999999999999999 0.01125 0.59999999999999987 0.022499999999999999 0.0074999999999999997 0.59999999999999976 0.014999999999999999 0.01125 0.60000000000000009 0.029999999999999999 0.01125 0.54999999999999982 0.022499999999999999 0.014999999999999999 0.55000000000000004 0.029999999999999999 0.014999999999999999 0.59999999999999987 0.022499999999999999 0.014999999999999999 0.54999999999999982 0.022499999999999999 0.01125 0.55000000000000004 0.029999999999999999 0.01125 0.59999999999999987 0.022499999999999999 0.01125 
1 0.029999999999999999 0 0.90000000000000024 0.029999999999999999 0 1 0.014999999999999999 0 1 0.029999999999999999 0.0074999999999999997 0.90000000000000024 0.029999999999999999 0.0074999999999999997 1 0.014999999999999999 0.0074999999999999997 0.95000000000000018 0.029999999999999999 0 1 0.022499999999999999 0 1 0.029999999999999999 0.0037499999999999999 0.95000000000000018 0.022499999999999999 0 0.90000000000000024 0.029999999999999999 0.0037499999999999999 1 0.014999999999999999 0.0037499999999999999 0.95000000000000018 0.029999999999999999 0.0074999999999999997 1 0.022499999999999999 0.0074999999999999997 0.95000000000000018 0.022499999999999999 0.0074999999999999997 0.95000000000000018 0.029999999999999999 0.0037499999999999999 1 0.022499999999999999 0.0037499999999999999 0.95000000000000018 0.022499999999999999 0.0037499999999999999 
1 0.029999999999999999 0.0074999999999999997 0.90000000000000024 0.029999999999999999 0.0074999999999999997 1 0.014999999999999999 0.0074999999999999997 1 0.029999999999999999 0.014999999999999999 0.90000000000000024 0.029999999999999999 0.014999999999999999 1 0.014999999999999999 0.014999999999999999 0.95000000000000018 0.029999999999999999 0.0074999999999999997 1 0.022499999999999999 0.0074999999999999997 1 0.029999999999999999 0.01125 0.95000000000000018 0.022499999999999999 0.0074999999999999997 0.90000000000000024 0.029999999999999999 0.01125 1 0.014999999999999999 0.01125 0.95000000000000018 0.029999999999999999 0.014999999999999999 1 0.022499999999999999 0.014999999999999999 0.95000000000000018 0.022499999999999999 0.014999999999999999 0.95000000000000018 0.029999999999999999 0.01125 1 0.022499999999999999 0.01125 0.95000000000000018 0.022499999999999999 0.01125 
0.90000000000000024 0.029999999999999999 0 0.89999999999999991 0.014999999999999999 0 1 0.014999999999999999 0 0.90000000000000024 0.029999999999999999 0.0074999999999999997 0.89999999999999991 0.014999999999999999 0.0074999999999999997 1 0.014999999999999999 0.0074999999999999997 0.90000000000000013 0.022499999999999999 0 0.95000000000000018 0.022499999999999999 0 0.90000000000000024 0.029999999999999999 0.0037499999999999999 0.94999999999999996 0.014999999999999999 0 0.89999999999999991 0.014999999999999999 0.0037499999999999999 1 0.014999999999999999 0.0037499999999999999 0.90000000000000013 0.022499999999999999 0.0074999999999999997 0.95000000000000018 0.022499999999999999 0.0074999999999999997 0.94999999999999996 0.014999999999999999 0.0074999999999999997 0.90000000000000013 0.022499999999999999 0.0037499999999999999 0.95000000000000018 0.022499999999999999 0.0037499999999999999 0.94999999999999996 0.014999999999999999 0.0037499999999999999 
0.90000000000000024 0.029999999999999999 0.0074999999999999997 0.89999999999999991 0.014999999999999999 0.0074999999999999997 1 0.014999999999999999 0.0074999999999999997 0.90000000000000024 0.029999999999999999 0.014999999999999999 0.89999999999999991 0.014999999999999999 0.014999999999999999 1 0.014999999999999999 0.014999999999999999 0.90000000000000013 0.022499999999999999 0.0074999999999999997 0.95000000000000018 0.022499999999999999 0.0074999999999999997 0.90000000000000024 0.029999999999999999 0.01125 0.94999999999999996 0.014999999999999999 0.0074999999999999997 0.89999999999999991 0.014999999999999999 0.01125 1 0.014999999999999999 0.01125 0.90000000000000013 0.022499999999999999 0.014999999999999999 0.95000000000000018 0.022499999999999999 0.014999999999999999 0.94999999999999996 0.014999999999999999 0.014999999999999999 0.90000000000000013 0.022499999999999999 0.01125 0.95000000000000018 0.022499999999999999 0.01125 0.94999999999999996 0.014999999999999999 0.01125 
0.90000000000000024 0.029999999999999999 0 0.80000000000000016 0.029999999999999999 0 0.89999999999999991 0.014999999999999999 0 0.90000000000000024 0.029999999999999999 0.0074999999999999997 0.80000000000000016 0.029999999999999999 0.0074999999999999997 0.89999999999999991 0.014999999999999999 0.0074999999999999997 0.8500000000000002 0.029999999999999999 0 0.90000000000000013 0.022499999999999999 0 0.90000000000000024 0.029999999999999999 0.0037499999999999999 0.85000000000000009 0.022499999999999999 0 0.80000000000000016 0.029999999999999999 0.0037499999999999999 0.89999999999999991 0.014999999999999999 0.0037499999999999999 0.8500000000000002 0.029999999999999999 0.0074999999999999997 0.90000000000000013 0.022499999999999999 0.0074999999999999997 0.85000000000000009 0.022499999999999999 0.0074999999999999997 0.8500000000000002 0.029999999999999999 0.0037499999999999999 0.90000000000000013 0.022499999999999999 0.0037499999999999999 0.85000000000000009 0.022499999999999999 0.0037499999999999999 
0.90000000000000024 0.029999999999999999 0.0074999999999999997 0.80000000000000016 0.029999999999999999 0.0074999999999999997 0.89999999999999991 0.014999999999999999 0.0074999999999999997 0.90000000000000024 0.029999999999999999 0.014999999999999999 0.80000000000000016 0.029999999999999999 0.014999999999999999 0.89999999999999991 0.014999999999999999 0.014999999999999999 0.8500000000000002 0.029999999999999999 0.0074999999999999997 0.90000000000000013 0.022499999999999999 0.0074999999999999997 0.90000000000000024 0.029999999999999999 0.01125 0.85000000000000009 0.022499999999999999 0.0074999999999999997 0.80000000000000016 0.029999999999999999 0.01125 0.89999999999999991 0.014999999999999999 0.01125 0.8500000000000002 0.029999999999999999 0.014999999999999999 0.90000000000000013 0.022499999999999999 0.014999999999999999 0.85000000000000009 0.022499999999999999 0.014999999999999999 0.8500000000000002 0.029999999999999999 0.01125 0.90000000000000013 0.022499999999999999 0.01125 0.85000000000000009 0.022499999999999999 0.01125 
[...]
POINT_DATA 2880

VECTORS u double
0.016546877621428126 5.7040199790793667e-05 -0.046740355446631965
-1.9563240218671935e-05 -0.00084163127593746289 -0.10700302812810794
4.3568932802908998e-06 3.4731623695538754e-05 -0.10656779405258671
0.0081248959007822665 2.7670222718168497e-05 -0.046904172121530127
-3.8018615634774253e-05 -0.00042274572262838576 -0.10730157600423378
1.5860697873570622e-05 1.6875364820392212e-05 -0.10687800040378949
0.0090493996641578655 -0.0003122105009877606 -0.090798650769833414
0.0090480339085157006 5.3945670665999386e-05 -0.090752162015540469
0.012281725505856296 4.2110843567442816e-05 -0.046835597704491062
-1.0971068081654025e-05 -0.00040247563291363666 -0.1066630959561278
-4.7184108407529929e-05 -0.00063217609273068839 -0.10717187992262425
1.9717379217948914e-05 2.7159824049222744e-05 -0.10674357419942283
0.0045231944834599287 -0.00015756984406540997 -0.091084714465059877
0.0045099263234332559 2.7983922573842635e-05 -0.091025390342249976
-9.3268480070144677e-06 -0.00020210613151120779 -0.10698488037438336
0.0067874752786165815 -0.00023627262715848223 -0.090967005551249439
0.0067707071797893969 4.1689637084943794e-05 -0.090912052477160374
-1.0915718367219832e-05 -0.0003018802220602185 -0.10685030009253177
0.0081248959007822665 2.7670222718168497e-05 -0.046904172121530127
-3.8018615634774253e-05 -0.00042274572262838576 -0.10730157600423378
1.5860697873570622e-05 1.6875364820392212e-05 -0.10687800040378949
9.6846585553857139e-11 1.1909592246497331e-10 -0.046957133022349926
9.510562618503935e-11 6.9643260374084082e-11 -0.10740919277230017
1.2523623772101497e-10 6.4120546858687365e-11 -0.10698838988664659
0.0045231944834599287 -0.00015756984406540997 -0.091084714465059877
0.0045099263234332559 2.7983922573842635e-05 -0.091025390342249976
0.0040441770662327852 1.3743227964868084e-05 -0.046944010824258614
-9.3268480070144677e-06 -0.00020210613151120779 -0.10698488037438336
-2.0490619612043726e-05 -0.00021173398012063849 -0.10738186090152252
8.3670812333658165e-06 8.1509795515373226e-06 -0.10696050771155768
1.0356980032188285e-10 1.149518550171472e-10 -0.091177113661970982
1.1028107362983753e-10 1.1356799411778845e-10 -0.09111553964923029
1.1496262006804682e-10 6.7657248873026184e-11 -0.10709371214185755
0.0022608120838503759 -7.8704574746456276e-05 -0.09115421750531813
0.0022538458631351506 1.4105686315471752e-05 -0.091093095764285953
-5.1800942421136903e-06 -0.00010145479277217157 -0.10706633948287866
-1.9563240218671935e-05 -0.00084163127593746289 -0.10700302812810794
0.016546877621428126 5.7040199790793667e-05 -0.046740355446631965
0.016511354046818683 -0.00035418496737441984 -0.046982951164350237
-3.8018615634774253e-05 -0.00042274572262838576 -0.10730157600423378
0.0081248959007822665 2.7670222718168497e-05 -0.046904172121530127
0.0080719432504653549 -0.0001754038348303889 -0.047091610148536557
0.0090493996641578655 -0.0003122105009877606 -0.090798650769833414
0.0090376799353590817 -0.00066742457105139878 -0.091015547397000587
-4.7184108407529929e-05 -0.00063217609273068839 -0.10717187992262425
0.016545750245478465 -0.00015828537195579191 -0.046806508232467625
0.012281725505856296 4.2110843567442816e-05 -0.046835597704491062
0.012216238731823068 -0.00026468659933274894 -0.047041685179212478
0.0045231944834599287 -0.00015756984406540997 -0.091084714465059877
0.0045275198885068781 -0.00034154214591202602 -0.091321514991542854
0.0081019777507645406 -7.3069475539605348e-05 -0.046949985344457872
0.0067874752786165815 -0.00023627262715848223 -0.090967005551249439
0.0067917065670864939 -0.00051118210299578757 -0.091199155352192363
0.012253011486666153 -0.00010983951634771516 -0.046890044232055172
-3.8018615634774253e-05 -0.00042274572262838576 -0.10730157600423378
0.0081248959007822665 2.7670222718168497e-05 -0.046904172121530127
0.0080719432504653549 -0.0001754038348303889 -0.047091610148536557
9.510562618503935e-11 6.9643260374084082e-11 -0.10740919277230017
9.6846585553857139e-11 1.1909592246497331e-10 -0.046957133022349926
1.0469507159849663e-10 1.1386643406509945e-10 -0.047136115033249347
0.0045231944834599287 -0.00015756984406540997 -0.091084714465059877
0.0045275198885068781 -0.00034154214591202602 -0.091321514991542854
-2.0490619612043726e-05 -0.00021173398012063849 -0.10738186090152252
0.0081019777507645406 -7.3069475539605348e-05 -0.046949985344457872
0.0040441770662327852 1.3743227964868084e-05 -0.046944010824258614
0.0040156981784094997 -8.7661639470649095e-05 -0.04712453030166032
1.0356980032188285e-10 1.149518550171472e-10 -0.091177113661970982
9.9702776601040085e-11 1.122201031273492e-10 -0.09141562505149177
1.0303521802357385e-10 1.2278815509054601e-10 -0.046998668569880941
0.0022608120838503759 -7.8704574746456276e-05 -0.091154217505318144
0.0022632172546110298 -0.00017082001932215493 -0.091392523127541522
0.0040317220338473986 -3.6588775519809614e-05 -0.046986421505515685
0 0 0
-0.013238912927189249 -1.9799649417319767e-05 0.055987322345056399
0 0 0
0 0 0
-0.0064548594448443778 2.5391805283219144e-05 0.056161029000435923
0 0 0
-0.0083781476116295949 -0.00060686344203446342 0.017125676569229482
0 0 0
0 0 0
-0.0083905383926459222 -0.00035857789985864886 0.017286061389495861
-0.0097878638770802027 2.6365885728216542e-05 0.056095964023269523
0 0 0
-0.0040917672504831018 -0.00032731951135602514 0.016762323787623979
0 0 0
-0.0041291671862607156 -0.00019031869950123035 0.016984329553496047
-0.0061925134255920566 -0.00048360147299450246 0.01690778564129989
0 0 0
-0.0062398458848079777 -0.00027708673170077951 0.017109313072330368
0 0 0
-0.0064548594448443778 2.5391805283219144e-05 0.056161029000435923
0 0 0
0 0 0
-3.6031335426722482e-11 -1.8277158701253564e-10 0.056205586217240144
0 0 0
-0.0040917672504831018 -0.00032731951135602514 0.016762323787623979
0 0 0
0 0 0
-0.0041291671862607156 -0.00019031869950123035 0.016984329553496047
-0.0032071039137839749 1.4463182881577392e-05 0.056194980943752505
0 0 0
-3.6735009191221748e-11 -8.5072040521445066e-11 0.016650143760770036
0 0 0
-2.3268361510059684e-11 -8.5367171527241782e-11 0.016884452439391615
-0.0020350912753077663 -0.00016519557494763888 0.016677759571491552
0 0 0
-0.0020553656989907745 -9.6208056759158393e-05 0.016909290604631363
-0.013238912927189249 -1.9799649417319767e-05 0.055987322345056399
-0.013266065525892086 7.4808911643008594e-05 0.055995768490468403
0 0 0
-0.0064548594448443778 2.5391805283219144e-05 0.056161029000435923
-0.0064721763384040848 3.9779146128914524e-05 0.056106347597282294
0 0 0
-0.013283085292296763 4.7899125217355131e-05 0.056064880810532416
-0.0083905383926459222 -0.00035857789985864886 0.017286061389495861
-0.0097878638770802027 2.6365885728216542e-05 0.056095964023269523
-0.0084089809598095356 -0.00010791620221842752 0.017398905454654473
-0.0098131621711258187 5.6835343763154682e-05 0.056067417104276714
0 0 0
-0.0064611590539401997 3.6096849757128352e-05 0.056127359471872376
-0.0041291671862607156 -0.00019031869950123035 0.016984329553496047
-0.0041440362146603748 -5.6863062268620863e-05 0.017091238708803715
-0.009797258865638845 4.5248220417904243e-05 0.056101135561154258
-0.0062398458848079777 -0.00027708673170077951 0.017109313072330368
-0.0062556107227734479 -8.234208958244646e-05 0.017216362020103283
-0.0064548594448443778 2.5391805283219144e-05 0.056161029000435923
-0.0064721763384040848 3.9779146128914524e-05 0.056106347597282294
0 0 0
-3.6031335426722482e-11 -1.8277158701253564e-10 0.056205586217240144
-6.0620429194998996e-12 -1.8087228692305426e-10 0.056131315944268075
0 0 0
-0.0064611590539401997 3.6096849757128352e-05 0.056127359471872376
-0.0041291671862607156 -0.00019031869950123035 0.016984329553496047
-0.0032071039137839749 1.4463182881577392e-05 0.056194980943752505
-0.0041440362146603748 -5.6863062268620863e-05 0.017091238708803715
-0.0032157778930226033 2.1115138522665988e-05 0.0561254572242606
0 0 0
-1.6085999383725642e-11 -1.7590574049246817e-10 0.056150703414205402
-2.3268361510059684e-11 -8.5367171527241782e-11 0.016884452439391615
-1.1946294443278453e-11 -8.361061741566937e-11 0.016993324727790412
-0.0032097906901235448 1.914242831365434e-05 0.056144842333750847
-0.0020553656989907745 -9.6208056759158393e-05 0.016909290604631363
-0.0020641450640220692 -2.89457226098063e-05 0.01701747411921585
-0.013238912927189249 -1.9799649417319767e-05 0.055987322345056399
-0.0019031299284280143 0.00085227504401620398 0.11459277796992164
-0.013266065525892086 7.4808911643008594e-05 0.055995768490468403
-0.0064548594448443778 2.5391805283219144e-05 0.056161029000435923
-0.00087767783026544591 0.00042581933406463633 0.11485848558785328
-0.0064721763384040848 3.9779146128914524e-05 0.056106347597282294
-0.0088249869239288882 0.00049530297984553271 0.095042334424134844
-0.013283085292296763 4.7899125217355131e-05 0.056064880810532416
-0.0097878638770802027 2.6365885728216542e-05 0.056095964023269523
-0.0088434349684046037 0.00027424095119114622 0.094884327767850066
-0.0013573025498865869 0.00063894999915152626 0.11474375611183403
-0.0098131621711258187 5.6835343763154682e-05 0.056067417104276714
-0.0044079577746264685 0.00026257012411531411 0.095266939739105674
-0.0064611590539401997 3.6096849757128352e-05 0.056127359471872376
-0.0044171910906529617 0.00013829496903685609 0.09508199345665809
-0.0066184600979740408 0.00039379269425947875 0.095180024487679968
-0.009797258865638845 4.5248220417904243e-05 0.056101135561154258
-0.0066316182126536236 0.00020306599468932604 0.09500107696860445
-0.0064548594448443778 2.5391805283219144e-05 0.056161029000435923
-0.00087767783026544591 0.00042581933406463633 0.11485848558785328
-0.0064721763384040848 3.9779146128914524e-05 0.056106347597282294
-3.6031335426722482e-11 -1.8277158701253564e-10 0.056205586217240144
1.9789671566171112e-11 -2.3087286963973554e-10 0.11495465224068112
-6.0620429194998996e-12 -1.8087228692305426e-10 0.056131315944268075
-0.0044079577746264685 0.00026257012411531411 0.095266939739105674
-0.0064611590539401997 3.6096849757128352e-05 0.056127359471872376
-0.0032071039137839749 1.4463182881577392e-05 0.056194980943752505
-0.0044171910906529617 0.00013829496903685609 0.09508199345665809
-0.00043153657172664313 0.00021314941935355114 0.1149303029232485
-0.0032157778930226033 2.1115138522665988e-05 0.0561254572242606
-1.5776502145974453e-12 -2.5659506312712833e-10 0.095333159061330455
-1.6085999383725642e-11 -1.7590574049246817e-10 0.056150703414205402
3.8801686552523893e-12 -2.5572540397590543e-10 0.095144971557299021
-0.0022024737380963023 0.00013217684629188723 0.095317063484486125
-0.0032097906901235448 1.914242831365434e-05 0.056144842333750847
-0.0022072490794680668 6.9219074122814443e-05 0.095129375199775837
-0.0019031299284280143 0.00085227504401620398 0.11459277796992164
0.015075748087550937 0.00055530355233238983 0.067728068210587272
-0.0019403615298987081 5.0354258158933791e-05 0.11412478352123323
-0.00087767783026544591 0.00042581933406463633 0.11485848558785328
0.0074065751614264264 0.00028041816666107269 0.067919026833446763
-0.00093594259300237436 2.6214161289105942e-05 0.11438281776075597
0.0070403796993096816 0.00082581127035274559 0.10571906300063473
-0.0019306320133312686 0.00045455086941943842 0.11424219210109188
-0.0013573025498865869 0.00063894999915152626 0.11474375611183403
0.0070542481697433356 0.00044018883206875861 0.1053985157020827
0.01119444370691626 0.0004169043435762761 0.067837527048337773
-0.0014287672810601379 3.9767314582844245e-05 0.11427020919775292
0.0034985398765979775 0.000410075933174547 0.10600277855988437
-0.00090954974654134074 0.00022653178053865804 0.11452775445976375
0.0035250421522192415 0.00022105344640730107 0.10569496150644793
0.0052558936048543786 0.00061534956876171162 0.10588604091167998
-0.0013962468172843095 0.0003400753278186339 0.11440808646182574
0.0052895782231006678 0.00033051507126291254 0.10557244549597855
-0.00087767783026544591 0.00042581933406463633 0.11485848558785328
0.0074065751614264264 0.00028041816666107269 0.067919026833446763
-0.00093594259300237436 2.6214161289105942e-05 0.11438281776075597
1.9789671566171112e-11 -2.3087286963973554e-10 0.11495465224068112
1.1007388931923683e-10 -3.3741459675228781e-11 0.067984166683343741
4.6456294606252823e-12 -2.3187978094645554e-10 0.11447725017809711
0.0034985398765979775 0.000410075933174547 0.10600277855988437
-0.00090954974654134074 0.00022653178053865804 0.11452775445976375
-0.00043153657172664313 0.00021314941935355114 0.1149303029232485
0.0035250421522192415 0.00022105344640730107 0.10569496150644793
0.003686896363277725 0.00014048266927047838 0.067967833937702726
-0.00046300956179486894 1.2997677877500575e-05 0.11445328672500867
5.176176309615786e-11 -1.7395909040654579e-10 0.10609583869648338
1.5343157718800354e-11 -2.3027838890107328e-10 0.11462397405911755
3.7339918877665489e-11 -1.7679380353768714e-10 0.10579027085951809
0.0017479902396938822 0.00020502112606071528 0.10607274231718079
-0.00044865424319800209 0.00011336815991145542 0.11459975912683626
0.0017619722722313641 0.00011064841410302245 0.10576671057161069
-0.013266065525892086 7.4808911643008594e-05 0.055995768490468403
-0.0019031299284280143 0.00085227504401620398 0.11459277796992164
-0.0019403615298987081 5.0354258158933791e-05 0.11412478352123323
-0.0064721763384040848 3.9779146128914524e-05 0.056106347597282294
-0.00087767783026544591 0.00042581933406463633 0.11485848558785328
-0.00093594259300237436 2.6214161289105942e-05 0.11438281776075597
-0.0088434349684046037 0.00027424095119114622 0.094884327767850066
-0.0088423493209028835 2.3102183165989663e-05 0.094814669261668233
-0.0098131621711258187 5.6835343763154682e-05 0.056067417104276714
-0.0019306320133312686 0.00045455086941943842 0.11424219210109188
-0.0013573025498865869 0.00063894999915152626 0.11474375611183403
-0.0014287672810601379 3.9767314582844245e-05 0.11427020919775292
-0.0044171910906529617 0.00013829496903685609 0.09508199345665809
-0.004417598751582168 1.4346040316557321e-05 0.09501114291381102
-0.00090954974654134074 0.00022653178053865804 0.11452775445976375
-0.0066316182126536236 0.00020306599468932594 0.095001076968604464
-0.0066303202083303116 2.3432169084846075e-05 0.094930839066003914
-0.0013962468172843095 0.0003400753278186339 0.11440808646182574
-0.0064721763384040848 3.9779146128914524e-05 0.056106347597282294
-0.00087767783026544591 0.00042581933406463633 0.11485848558785328
-0.00093594259300237436 2.6214161289105942e-05 0.11438281776075597
-6.0620429194998996e-12 -1.8087228692305426e-10 0.056131315944268075
1.9789671566171112e-11 -2.3087286963973554e-10 0.11495465224068112
4.6456294606252823e-12 -2.3187978094645554e-10 0.11447725017809711
-0.0044171910906529617 0.00013829496903685609 0.09508199345665809
-0.004417598751582168 1.4346040316557321e-05 0.09501114291381102
-0.0032157778930226033 2.1115138522665988e-05 0.0561254572242606
-0.00090954974654134074 0.00022653178053865804 0.11452775445976375
-0.00043153657172664313 0.00021314941935355114 0.1149303029232485
-0.00046300956179486894 1.2997677877500575e-05 0.11445328672500867
3.8801686552523893e-12 -2.5572540397590543e-10 0.095144971557299021
5.62619376608562e-12 -2.4815364993637915e-10 0.095073605994211649
1.5343157718800354e-11 -2.3027838890107328e-10 0.11462397405911755
-0.0022072490794680668 6.9219074122814443e-05 0.095129375199775837
-0.0022074849810251665 7.468738462085193e-06 0.095058212378602444
-0.00044865424319800209 0.00011336815991145542 0.11459975912683626
0.015081276059080467 6.1778204522194526e-05 0.067482681864779209
0.015075748087550937 0.00055530355233238983 0.067728068210587272
0.016511354046818683 -0.00035418496737441984 -0.046982951164350237
0.0073878284896869333 3.0584137253410057e-05 0.067625183337216385
0.0074065751614264264 0.00028041816666107269 0.067919026833446763
0.0080719432504653549 -0.0001754038348303889 -0.047091610148536557
0.015094765118439256 0.00029921286390322276 0.067528989320268795
0.017286214026970333 9.4394594818724282e-05 0.011606649414493691
0.01117113305705888 4.6236396173565249e-05 0.067559800285386176
0.017259276088573083 0.00015027697598488953 0.011706022168269816
0.01119444370691626 0.0004169043435762761 0.067837527048337773
0.012216238731823068 -0.00026468659933274894 -0.047041685179212478
0.0074006344141189732 0.00015565206330895177 0.067713362258220888
0.0086405571586418636 4.4962810612774137e-05 0.011633602293375685
0.0086158255359013707 6.2035453870021114e-05 0.011696077958115204
0.011187226926368402 0.0002331672075872646 0.067636572895125285
0.012966701348055465 6.7633678326462418e-05 0.011621514783660979
0.012932307367602005 9.4948688067613709e-05 0.011695794598357612
0.0073878284896869333 3.0584137253410057e-05 0.067625183337216385
0.0074065751614264264 0.00028041816666107269 0.067919026833446763
0.0080719432504653549 -0.0001754038348303889 -0.047091610148536557
6.5714154224689686e-11 -4.097009080247262e-11 0.067683449778721858
1.1007388931923683e-10 -3.3741459675228781e-11 0.067984166683343741
1.0469507159849663e-10 1.1386643406509945e-10 -0.047136115033249347
0.0074006344141189732 0.00015565206330895177 0.067713362258220888
0.0086405571586418636 4.4962810612774137e-05 0.011633602293375685
0.0036771187027173184 1.5275245337687518e-05 0.067668393528250909
0.0086158255359013707 6.2035453870021114e-05 0.011696077958115204
0.003686896363277725 0.00014048266927047838 0.067967833937702726
0.0040156981784094997 -8.7661639470649095e-05 -0.04712453030166032
9.1280075421620671e-11 -2.9533553238415505e-11 0.067775103711772824
1.0674867130912997e-10 7.0151821116247642e-11 0.011642382986031659
1.2366348651592806e-10 7.7758270877274794e-11 0.011699727930533806
0.0036836924795961949 7.8047284943970783e-05 0.067759578766235659
0.0043187948071991607 2.2551209116552076e-05 0.011640227970261208
0.0043058767449117167 3.0655744955350259e-05 0.011698494687500749
-0.0019403615298987081 5.0354258158933791e-05 0.11412478352123323
0.015075748087550937 0.00055530355233238983 0.067728068210587272
0.015081276059080467 6.1778204522194526e-05 0.067482681864779209
-0.00093594259300237436 2.6214161289105942e-05 0.11438281776075597
0.0074065751614264264 0.00028041816666107269 0.067919026833446763
0.0073878284896869333 3.0584137253410057e-05 0.067625183337216385
0.0070542481697433356 0.00044018883206875861 0.1053985157020827
0.0070574734350326001 6.4372172617259773e-05 0.10526663651724576
-0.0014287672810601379 3.9767314582844245e-05 0.11427020919775292
0.015094765118439256 0.00029921286390322276 0.067528989320268795
0.01119444370691626 0.0004169043435762761 0.067837527048337773
0.01117113305705888 4.6236396173565249e-05 0.067559800285386176
0.0035250421522192415 0.00022105344640730107 0.10569496150644793
0.0035456701502646812 3.2742469394851343e-05 0.10557096026370975
0.0074006344141189732 0.00015565206330895177 0.067713362258220888
0.0052895782231006678 0.00033051507126291254 0.10557244549597854
0.0053148006139984378 4.858654199539553e-05 0.10544852941006949
0.011187226926368402 0.0002331672075872646 0.067636572895125285
-0.00093594259300237436 2.6214161289105942e-05 0.11438281776075597
0.0074065751614264264 0.00028041816666107269 0.067919026833446763
0.0073878284896869333 3.0584137253410057e-05 0.067625183337216385
4.6456294606252823e-12 -2.3187978094645554e-10 0.11447725017809711
1.1007388931923683e-10 -3.3741459675228781e-11 0.067984166683343741
6.5714154224689686e-11 -4.097009080247262e-11 0.067683449778721858
0.0035250421522192415 0.00022105344640730107 0.10569496150644793
0.0035456701502646812 3.2742469394851343e-05 0.10557096026370975
-0.00046300956179486894 1.2997677877500575e-05 0.11445328672500867
0.0074006344141189732 0.00015565206330895177 0.067713362258220888
0.003686896363277725 0.00014048266927047838 0.067967833937702726
0.0036771187027173184 1.5275245337687518e-05 0.067668393528250909
3.7339918877665489e-11 -1.7679380353768714e-10 0.10579027085951809
2.142803431890457e-11 -1.809702038281329e-10 0.10566616480139768
9.1280075421620671e-11 -2.9533553238415505e-11 0.067775103711772824