# vtk DataFile Version 4.2
u
ASCII
DATASET UNSTRUCTURED_GRID

POINTS 2880 double
0.59999999999999976 0.014999999999999999 0 0.5 0.029999999999999999 0 0.5 0.014999999999999999 0 0.59999999999999976 0.014999999999999999 0.0074999999999999997 0.5 0.029999999999999999 0.0074999999999999997 0.5 0.014999999999999999 0.0074999999999999997 0.54999999999999982 0.022499999999999999 0 0.54999999999999982 0.014999999999999999 0 0.59999999999999976 0.014999999999999999 0.0037499999999999999 0.5 0.022499999999999999 0 0.5 0.029999999999999999 0.0037499999999999999 0.5 0.014999999999999999 0.0037499999999999999 0.54999999999999982 0.022499999999999999 0.0074999999999999997 0.54999999999999982 0.014999999999999999 0.0074999999999999997 0.5 0.022499999999999999 0.0074999999999999997 0.54999999999999982 0.022499999999999999 0.0037499999999999999 0.54999999999999982 0.014999999999999999 0.0037499999999999999 0.5 0.022499999999999999 0.0037499999999999999 
0.59999999999999976 0.014999999999999999 0.0074999999999999997 0.5 0.029999999999999999 0.0074999999999999997 0.5 0.014999999999999999 0.0074999999999999997 0.59999999999999976 0.014999999999999999 0.014999999999999999 0.5 0.029999999999999999 0.014999999999999999 0.5 0.014999999999999999 0.014999999999999999 0.54999999999999982 0.022499999999999999 0.0074999999999999997 0.54999999999999982 0.014999999999999999 0.0074999999999999997 0.59999999999999976 0.014999999999999999 0.01125 0.5 0.022499999999999999 0.0074999999999999997 0.5 0.029999999999999999 0.01125 0.5 0.014999999999999999 0.01125 0.54999999999999982 0.022499999999999999 0.014999999999999999 0.54999999999999982 0.014999999999999999 0.014999999999999999 0.5 0.022499999999999999 0.014999999999999999 0.54999999999999982 0.022499999999999999 0.01125 0.54999999999999982 0.014999999999999999 0.01125 0.5 0.022499999999999999 0.01125 
0.5 0.029999999999999999 0 0.59999999999999976 0.014999999999999999 0 0.60000000000000009 0.029999999999999999 0 0.5 0.029999999999999999 0.0074999999999999997 0.59999999999999976 0.014999999999999999 0.0074999999999999997 0.60000000000000009 0.029999999999999999 0.0074999999999999997 0.54999999999999982 0.022499999999999999 0 0.55000000000000004 0.029999999999999999 0 0.5 0.029999999999999999 0.0037499999999999999 0.59999999999999987 0.022499999999999999 0 0.59999999999999976 0.014999999999999999 0.0037499999999999999 0.60000000000000009 0.029999999999999999 0.0037499999999999999 0.54999999999999982 0.022499999999999999 0.0074999999999999997 0.55000000000000004 0.029999999999999999 0.0074999999999999997 0.59999999999999987 0.022499999999999999 0.0074999999999999997 0.54999999999999982 0.022499999999999999 0.0037499999999999999 0.55000000000000004 0.029999999999999999 0.0037499999999999999 0.59999999999999987 0.022499999999999999 0.0037499999999999999 
0.5 0.029999999999999999 0.0074999999999999997 0.59999999999999976 0.014999999999999999 0.0074999999999999997 0.60000000000000009 0.029999999999999999 0.0074999999999999997 0.5 0.029999999999999999 0.014999999999999999 0.59999999999999976 0.014999999999999999 0.014999999999999999 0.60000000000000009 0.029999999999999999 0.014999999999999999 0.54999999999999982 0.022499999999999999 0.0074999999999999997 0.55000000000000004 0.029999999999999999 0.0074999999999999997 0.5 0.029999999999999999 0.01125 0.59999999999999987 0.022499999999999999 0.0074999999999999997 0.59999999999999976 0.014999999999999999 0.01125 0.60000000000000009 0.029999999999999999 0.01125 0.54999999999999982 0.022499999999999999 0.014999999999999999 0.55000000000000004 0.029999999999999999 0.014999999999999999 0.59999999999999987 0.022499999999999999 0.014999999999999999 0.54999999999999982 0.022499999999999999 0.01125 0.55000000000000004 0.029999999999999999 0.01125 0.59999999999999987 0.022499999999999999 0.01125 
1 0.029999999999999999 0 0.90000000000000024 0.029999999999999999 0 1 0.014999999999999999 0 1 0.029999999999999999 0.0074999999999999997 0.90000000000000024 0.029999999999999999 0.0074999999999999997 1 0.014999999999999999 0.0074999999999999997 0.95000000000000018 0.029999999999999999 0 1 0.022499999999999999 0 1 0.029999999999999999 0.0037499999999999999 0.95000000000000018 0.022499999999999999 0 0.90000000000000024 0.029999999999999999 0.0037499999999999999 1 0.014999999999999999 0.0037499999999999999 0.95000000000000018 0.029999999999999999 0.0074999999999999997 1 0.022499999999999999 0.0074999999999999997 0.95000000000000018 0.022499999999999999 0.0074999999999999997 0.95000000000000018 0.029999999999999999 0.0037499999999999999 1 0.022499999999999999 0.0037499999999999999 0.95000000000000018 0.022499999999999999 0.0037499999999999999 
1 0.029999999999999999 0.0074999999999999997 0.90000000000000024 0.029999999999999999 0.0074999999999999997 1 0.014999999999999999 0.0074999999999999997 1 0.029999999999999999 0.014999999999999999 0.90000000000000024 0.029999999999999999 0.014999999999999999 1 0.014999999999999999 0.014999999999999999 0.95000000000000018 0.029999999999999999 0.0074999999999999997 1 0.022499999999999999 0.0074999999999999997 1 0.029999999999999999 0.01125 0.95000000000000018 0.022499999999999999 0.0074999999999999997 0.90000000000000024 0.029999999999999999 0.01125 1 0.014999999999999999 0.01125 0.95000000000000018 0.029999999999999999 0.014999999999999999 1 0.022499999999999999 0.014999999999999999 0.95000000000000018 0.022499999999999999 0.014999999999999999 0.95000000000000018 0.029999999999999999 0.01125 1 0.022499999999999999 0.01125 0.95000000000000018 0.022499999999999999 0.01125 
0.90000000000000024 0.029999999999999999 0 0.89999999999999991 0.014999999999999999 0 1 0.014999999999999999 0 0.90000000000000024 0.029999999999999999 0.0074999999999999997 0.89999999999999991 0.014999999999999999 0.0074999999999999997 1 0.014999999999999999 0.0074999999999999997 0.90000000000000013 0.022499999999999999 0 0.95000000000000018 0.022499999999999999 0 0.90000000000000024 0.029999999999999999 0.0037499999999999999 0.94999999999999996 0.014999999999999999 0 0.89999999999999991 0.014999999999999999 0.0037499999999999999 1 0.014999999999999999 0.0037499999999999999 0.90000000000000013 0.022499999999999999 0.0074999999999999997 0.95000000000000018 0.022499999999999999 0.0074999999999999997 0.94999999999999996 0.014999999999999999 0.0074999999999999997 0.90000000000000013 0.022499999999999999 0.0037499999999999999 0.95000000000000018 0.022499999999999999 0.0037499999999999999 0.94999999999999996 0.014999999999999999 0.0037499999999999999 
0.90000000000000024 0.029999999999999999 0.0074999999999999997 0.89999999999999991 0.014999999999999999 0.0074999999999999997 1 0.014999999999999999 0.0074999999999999997 0.90000000000000024 0.029999999999999999 0.014999999999999999 0.89999999999999991 0.014999999999999999 0.014999999999999999 1 0.014999999999999999 0.014999999999999999 0.90000000000000013 0.022499999999999999 0.0074999999999999997 0.95000000000000018 0.022499999999999999 0.0074999999999999997 0.90000000000000024 0.029999999999999999 0.01125 0.94999999999999996 0.014999999999999999 0.0074999999999999997 0.89999999999999991 0.014999999999999999 0.01125 1 0.014999999999999999 0.01125 0.90000000000000013 0.022499999999999999 0.014999999999999999 0.95000000000000018 0.022499999999999999 0.014999999999999999 0.94999999999999996 0.014999999999999999 0.014999999999999999 0.90000000000000013 0.022499999999999999 0.01125 0.95000000000000018 0.022499999999999999 0.01125 0.94999999999999996 0.014999999999999999 0.01125 
0.90000000000000024 0.029999999999999999 0 0.80000000000000016 0.029999999999999999 0 0.89999999999999991 0.014999999999999999 0 0.90000000000000024 0.029999999999999999 0.0074999999999999997 0.80000000000000016 0.029999999999999999 0.0074999999999999997 0.89999999999999991 0.014999999999999999 0.0074999999999999997 0.8500000000000002 0.029999999999999999 0 0.90000000000000013 0.022499999999999999 0 0.90000000000000024 0.029999999999999999 0.0037499999999999999 0.85000000000000009 0.022499999999999999 0 0.80000000000000016 0.029999999999999999 0.0037499999999999999 0.89999999999999991 0.014999999999999999 0.0037499999999999999 0.8500000000000002 0.029999999999999999 0.0074999999999999997 0.90000000000000013 0.022499999999999999 0.0074999999999999997 0.85000000000000009 0.022499999999999999 0.0074999999999999997 0.8500000000000002 0.029999999999999999 0.0037499999999999999 0.90000000000000013 0.022499999999999999 0.0037499999999999999 0.85000000000000009 0.022499999999999999 0.0037499999999999999 
0.90000000000000024 0.029999999999999999 0.0074999999999999997 0.80000000000000016 0.029999999999999999 0.0074999999999999997 0.89999999999999991 0.014999999999999999 0.0074999999999999997 0.90000000000000024 0.029999999999999999 0.014999999999999999 0.80000000000000016 0.029999999999999999 0.014999999999999999 0.89999999999999991 0.014999999999999999 0.014999999999999999 0.8500000000000002 0.029999999999999999 0.0074999999999999997 0.90000000000000013 0.022499999999999999 0.0074999999999999997 0.90000000000000024 0.029999999999999999 0.01125 0.85000000000000009 0.022499999999999999 0.0074999999999999997 0.80000000000000016 0.029999999999999999 0.01125 0.89999999999999991 0.014999999999999999 0.01125 0.8500000000000002 0.029999999999999999 0.014999999999999999 0.90000000000000013 0.022499999999999999 0.014999999999999999 0.85000000000000009 0.022499999999999999 0.014999999999999999 0.8500000000000002 0.029999999999999999 0.01125 0.90000000000000013 0.022499999999999999 0.01125 0.85000000000000009 0.022499999999999999 0.01125 
[...]
POINT_DATA 2880

VECTORS u double
-2.2777008610990893e-05 -0.046390468994998761 -1.8376333310963827e-06
-3.5433060887270877e-05 -0.1064806638962322 -0.00079155549760299081
-1.4071721269026517e-05 -0.10688287286586327 2.2118981502011868e-05
-2.3472508676509441e-05 -0.046261377550992369 -7.6453215806446908e-07
-2.9212802408526431e-05 -0.1061620475088377 -0.00040298602118071293
-1.7095387371398259e-05 -0.10658734008810504 7.1151882384660384e-06
-0.0045063503686779373 -0.091043824317152827 -0.00039605196284707352
-2.7719287994368655e-05 -0.091148573684926654 -2.3372996190014586e-07
-2.3259144932483683e-05 -0.046308213173591031 -1.1760996291677736e-06
-2.0909127497145307e-05 -0.10677243861780171 -0.00039372871764737553
-2.996720102657411e-05 -0.10628734442056614 -0.00059907435974487593
-1.5518947028850264e-05 -0.10670774294509321 1.3576843363455893e-05
-0.004512420235603257 -0.090737350816269408 -0.00020250217354257069
-2.61720757724607e-05 -0.090844669237559128 4.1291207593404797e-07
-2.2350076918848282e-05 -0.10647360086343681 -0.00019552082768414358
-0.0045087241469890871 -0.090862669767516391 -0.00030188087387901904
-2.6409788149074654e-05 -0.09097018069570588 6.7577755110364035e-07
-2.248809744287607e-05 -0.1065993686583097 -0.00029276234335430632
-2.3472508676509441e-05 -0.046261377550992369 -7.6453215806446908e-07
-2.9212802408526431e-05 -0.1061620475088377 -0.00040298602118071293
-1.7095387371398259e-05 -0.10658734008810504 7.1151882384660384e-06
-2.3635399865464294e-05 -0.046222171099649531 -2.9083088388918948e-10
-2.9129160590320838e-05 -0.10606148489412436 -8.3811891071370663e-10
-1.809371207056095e-05 -0.10648586487341538 -7.7672624573835577e-10
-0.004512420235603257 -0.090737350816269408 -0.00020250217354257069
-2.61720757724607e-05 -0.090844669237559128 4.1291207593404797e-07
-2.3600862462988005e-05 -0.046231847611695957 -3.6859520132904346e-07
-2.2350076918848282e-05 -0.10647360086343681 -0.00019552082768414358
-2.9044003457496572e-05 -0.10608622030946643 -0.0002022348773386989
-1.7847679949615821e-05 -0.10651115552208872 3.1031453511177654e-06
-0.0045150011422180596 -0.090638312363758522 -7.2077845350362211e-10
-2.6019306666211572e-05 -0.09074520331116262 -6.3228536337790939e-10
-2.2586568365078882e-05 -0.10637296310482303 -8.1864879439530644e-10
-0.0045143486308023544 -0.090662834561478889 -0.00010135534660233858
-2.6035455994295743e-05 -0.090769896580453258 2.2369215256325032e-07
-2.253934186703511e-05 -0.10639832089585219 -9.8109622196761336e-05
-3.5433060887270877e-05 -0.1064806638962322 -0.00079155549760299081
-2.2777008610990893e-05 -0.046390468994998761 -1.8376333310963827e-06
-0.016854737042942877 -0.046247535310780775 -0.00027130841963211183
-2.9212802408526431e-05 -0.1061620475088377 -0.00040298602118071293
-2.3472508676509441e-05 -0.046261377550992369 -7.6453215806446908e-07
-0.016887413716618657 -0.04614128953448815 -0.00014853714091859062
-0.0045063503686779373 -0.091043824317152827 -0.00039605196284707352
-0.0090034754154230366 -0.090761780178957696 -0.00083527903288594502
-2.996720102657411e-05 -0.10628734442056614 -0.00059907435974487593
-0.008314785490358672 -0.046359888000787455 -0.00015094333608861273
-2.3259144932483683e-05 -0.046308213173591031 -1.1760996291677736e-06
-0.016878613466057117 -0.046185754477557357 -0.00021399225044361808
-0.004512420235603257 -0.090737350816269408 -0.00020250217354257069
-0.0090207704343826297 -0.090447350901276993 -0.00040525645963033693
-0.0083444208477849533 -0.046253695397485715 -7.5949033651436171e-05
-0.0045087241469890871 -0.090862669767516377 -0.00030188087387901904
-0.0090163520685572016 -0.090573690445405419 -0.00061455311811525531
-0.0083351779418904086 -0.046301145979303918 -0.00011370383246831644
-2.9212802408526431e-05 -0.1061620475088377 -0.00040298602118071293
-2.3472508676509441e-05 -0.046261377550992369 -7.6453215806446908e-07
-0.016887413716618657 -0.04614128953448815 -0.00014853714091859062
-2.9129160590320838e-05 -0.10606148489412436 -8.3811891071370663e-10
-2.3635399865464294e-05 -0.046222171099649531 -2.9083088388918948e-10
-0.016890274774138028 -0.046103013960676009 -5.6315139268838419e-10
-0.004512420235603257 -0.090737350816269408 -0.00020250217354257069
-0.0090207704343826297 -0.090447350901276993 -0.00040525645963033693
-2.9044003457496572e-05 -0.10608622030946643 -0.0002022348773386989
-0.0083444208477849533 -0.046253695397485715 -7.5949033651436171e-05
-2.3600862462988005e-05 -0.046231847611695957 -3.6859520132904346e-07
-0.01688990000978426 -0.046112514259959256 -7.5651438617185268e-05
-0.0045150011422180596 -0.090638312363758522 -7.2077845350362211e-10
-0.0090229719934790641 -0.090346994524123342 -7.989077540226459e-10
-0.0083494069151946217 -0.046214786771275537 -4.2900179813839841e-10
-0.0045143486308023544 -0.090662834561478889 -0.00010135534660233858
-0.0090225732997614126 -0.090371901439895111 -0.00020134989275133754
-0.0083483896514312071 -0.046224764078231631 -3.8208107084537307e-05
0 0 0
0.013568152656701969 0.054700817003520703 -1.1309555536833e-05
0 0 0
0 0 0
0.013652833124094856 0.05474853137266035 -1.7770489498061941e-05
0 0 0
0.0079027734077950045 0.015866060443024275 -0.00079282914597556843
0 0 0
0 0 0
0.0039015754484056464 0.015681317323058747 -0.00036798371522326392
0.013633411065127402 0.054745461269643414 -1.7827053413601772e-05
0 0 0
0.0078850957148478978 0.016166418010621075 -0.00036830705706483247
0 0 0
0.0039111961716860964 0.015965729203322211 -0.00018393958972971075
0.0078882706345229439 0.016047126760937329 -0.00057052378913215857
0 0 0
0.0039092297404608326 0.015853506442168947 -0.00027608697325917262
0 0 0
0.013652833124094856 0.05474853137266035 -1.7770489498061941e-05
0 0 0
0 0 0
0.013658282139452133 0.05475195296139071 -3.305876561597313e-10
0 0 0
0.0078850957148478978 0.016166418010621075 -0.00036830705706483247
0 0 0
0 0 0
0.0039111961716860964 0.015965729203322211 -0.00018393958972971075
0.013657887932363423 0.054751806415296665 -1.0213748047902723e-05
0 0 0
0.0078836379095230565 0.016256216469716096 -2.3485078915494518e-10
0 0 0
0.0039130357216963499 0.016051219818337719 -2.2842547495782259e-10
0.0078838251788742215 0.016233971307564647 -0.00018094732011533752
0 0 0
0.0039126529676433682 0.016030527671534355 -9.1518633560602839e-05
0.013568152656701969 0.054700817003520703 -1.1309555536833e-05
-6.7484769161898432e-05 0.054653869865405026 -9.6490170631410903e-05
0 0 0
0.013652833124094856 0.05474853137266035 -1.7770489498061941e-05
-8.7826865162604598e-05 0.05465216989621894 -3.7502574317923698e-05
0 0 0
0.0065867605808432534 0.054701214296514408 -4.6476477712304285e-05
0.0039015754484056464 0.015681317323058747 -0.00036798371522326392
0.013633411065127402 0.054745461269643414 -1.7827053413601772e-05
-1.8998974096189059e-05 0.015647073638621653 2.6564617699501044e-05
-8.1281564133517105e-05 0.054657634294414247 -6.3813270688085614e-05
0 0 0
0.0066295553759543975 0.054697498520583379 -1.9751293831651956e-05
0.0039111961716860964 0.015965729203322211 -0.00018393958972971075
-8.0512195735450096e-06 0.015921251182493067 1.4950125796882999e-05
0.0066149232067936508 0.054691407441211842 -3.0492213978653425e-05
0.0039092297404608326 0.015853506442168947 -0.00027608697325917262
-1.2868240787722817e-05 0.015814024342221226 2.1302083182036726e-05
0.013652833124094856 0.05474853137266035 -1.7770489498061941e-05
-8.7826865162604598e-05 0.05465216989621894 -3.7502574317923698e-05
0 0 0
0.013658282139452133 0.05475195296139071 -3.305876561597313e-10
-9.0787205666309649e-05 0.054651179938643435 -3.2780962002954001e-10
0 0 0
0.0066295553759543975 0.054697498520583379 -1.9751293831651956e-05
0.0039111961716860964 0.015965729203322211 -0.00018393958972971075
0.013657887932363423 0.054751806415296665 -1.0213748047902723e-05
-8.0512195735450096e-06 0.015921251182493067 1.4950125796882999e-05
-9.0177236632860903e-05 0.054651550340874946 -1.7555400131798711e-05
0 0 0
0.006636614435601638 0.05470007746357803 -3.3576013418383197e-10
0.0039130357216963499 0.016051219818337719 -2.2842547495782259e-10
-5.0037238024161276e-06 0.01600476495094439 -2.2500706108544973e-10
0.0066351950271223 0.054698951964811823 -9.770929080995497e-06
0.0039126529676433682 0.016030527671534355 -9.1518633560602839e-05
-5.7403142982488607e-06 0.015984376936935159 7.2720005074771907e-06
0.013568152656701969 0.054700817003520703 -1.1309555536833e-05
0.0021357415254301534 0.11352168871173524 0.00065089026899330246
-6.7484769161898432e-05 0.054653869865405026 -9.6490170631410903e-05
0.013652833124094856 0.05474853137266035 -1.7770489498061941e-05
0.0021376353837639726 0.11326456237451332 0.00033910028138611867
-8.7826865162604598e-05 0.05465216989621894 -3.7502574317923698e-05
0.0087045003695761375 0.094017466161926869 0.0006179888968507616
0.0065867605808432534 0.054701214296514408 -4.6476477712304285e-05
0.013633411065127402 0.054745461269643414 -1.7827053413601772e-05
0.0043211571585467486 0.094204419486288549 0.00027148941883163965
0.002137309911097827 0.11336927025005367 0.00049806531205226804
-8.1281564133517105e-05 0.054657634294414247 -6.3813270688085614e-05
0.008727475592482898 0.093781229369874319 0.00029164458943364553
0.0066295553759543975 0.054697498520583379 -1.9751293831651956e-05
0.0043356367510737886 0.093984145359550936 0.00013997970472884609
0.0087199194938810971 0.093874559338514033 0.00045007112491797014
0.0066149232067936508 0.054691407441211842 -3.0492213978653425e-05
0.0043291184416597867 0.094073323400638925 0.00020535919851153632
0.013652833124094856 0.05474853137266035 -1.7770489498061941e-05
0.0021376353837639726 0.11326456237451332 0.00033910028138611867
-8.7826865162604598e-05 0.05465216989621894 -3.7502574317923698e-05
0.013658282139452133 0.05475195296139071 -3.305876561597313e-10
0.0021367395209139282 0.11317597227489606 6.4713360086550402e-10
-9.0787205666309649e-05 0.054651179938643435 -3.2780962002954001e-10
0.008727475592482898 0.093781229369874319 0.00029164458943364553
0.0066295553759543975 0.054697498520583379 -1.9751293831651956e-05
0.013657887932363423 0.054751806415296665 -1.0213748047902723e-05
0.0043356367510737886 0.093984145359550936 0.00013997970472884609
0.0021370071902673876 0.1131980302080299 0.00017134396521264195
-9.0177236632860903e-05 0.054651550340874946 -1.7555400131798711e-05
0.0087327042598877597 0.093713208226447187 1.0047974971090154e-10
0.006636614435601638 0.05470007746357803 -3.3576013418383197e-10
0.0043407781799124304 0.093917094805911108 1.0545284791135683e-10
0.0087315108277851126 0.09373006933794803 0.0001439560568000866
0.0066351950271223 0.054698951964811823 -9.770929080995497e-06
0.004339507644949326 0.09393359471495899 7.0408039151502279e-05
0.0021357415254301534 0.11352168871173524 0.00065089026899330246
-0.015277272448498814 0.067889653584593312 0.00052371119714295219
-3.8629776925927156e-05 0.11388708704326701 1.5954243159964176e-05
0.0021376353837639726 0.11326456237451332 0.00033910028138611867
-0.015313561200019653 0.067672501915567493 0.00025929285775938164
-4.2754445003579854e-05 0.11360459799519851 6.2910945961473669e-06
-0.0068196640348765448 0.10566797652680013 0.00081165787320754102
0.0010063454989439405 0.11377679203096037 0.00033860771011895143
0.002137309911097827 0.11336927025005367 0.00049806531205226804
-0.003419901768127104 0.10595717199824091 0.00041960536966410551
-0.015304868045293988 0.067754999849813577 0.00038995331685188014
-4.2393443135076612e-05 0.11371570798997729 1.1083889752506693e-05
-0.0068234671154955339 0.1053696186466844 0.0004022199656932497
0.0010119709119626881 0.11352510355758293 0.00017228981012146972
-0.0034268021096526208 0.10565658010478264 0.00020757294246957829
-0.006821938482705083 0.10549346316280532 0.00060464750476726785
0.0010105582610053989 0.11363580861133199 0.00025735953684096158
-0.0034245822284844967 0.1057800444601138 0.00031371949873817729
0.0021376353837639726 0.11326456237451332 0.00033910028138611867
-0.015313561200019653 0.067672501915567493 0.00025929285775938164
-4.2754445003579854e-05 0.11360459799519851 6.2910945961473669e-06
0.0021367395209139282 0.11317597227489606 6.4713360086550402e-10
-0.015316334887727436 0.067608207370730491 3.7224895959363481e-10
-4.2604502655318526e-05 0.1135162310496301 6.5762390981738995e-10
-0.0068234671154955339 0.1053696186466844 0.0004022199656932497
0.0010119709119626881 0.11352510355758293 0.00017228981012146972
0.0021370071902673876 0.1131980302080299 0.00017134396521264195
-0.0034268021096526208 0.10565658010478264 0.00020757294246957829
-0.015316044695995189 0.067623977720854447 0.00012950960154166377
-4.2699416849491691e-05 0.11353817196615763 2.7812493990032881e-06
-0.0068242284821421551 0.10526934376946701 7.1953399304648623e-10
0.0010125617100041125 0.11343559811076084 6.4287643944629555e-10
-0.0034284698400551756 0.10555785796135939 7.7915379834210931e-10
-0.0068240456816047231 0.10529440740597117 0.0002006529059120082
0.0010124756330869168 0.1134583054729574 8.640541546672363e-05
-0.0034280957883792811 0.10558242189336069 0.00010335745906656294
-6.7484769161898432e-05 0.054653869865405026 -9.6490170631410903e-05
0.0021357415254301534 0.11352168871173524 0.00065089026899330246
-3.8629776925927156e-05 0.11388708704326701 1.5954243159964176e-05
-8.7826865162604598e-05 0.05465216989621894 -3.7502574317923698e-05
0.0021376353837639726 0.11326456237451332 0.00033910028138611867
-4.2754445003579854e-05 0.11360459799519851 6.2910945961473669e-06
0.0043211571585467486 0.094204419486288549 0.00027148941883163965
-3.2733053082844923e-05 0.094273426409486688 -7.0868704949820659e-07
-8.1281564133517105e-05 0.054657634294414247 -6.3813270688085614e-05
0.0010063454989439405 0.11377679203096037 0.00033860771011895143
0.002137309911097827 0.11336927025005367 0.00049806531205226804
-4.2393443135076612e-05 0.11371570798997729 1.1083889752506693e-05
0.0043356367510737886 0.093984145359550936 0.00013997970472884609
-2.6329534767113883e-05 0.094070653006321961 -4.2745963320887694e-06
0.0010119709119626881 0.11352510355758293 0.00017228981012146972
0.0043291184416597867 0.094073323400638911 0.00020535919851153629
-2.7400497692906136e-05 0.094154513677343357 -4.4700005060148827e-06
0.0010105582610053989 0.11363580861133199 0.00025735953684096158
-8.7826865162604598e-05 0.05465216989621894 -3.7502574317923698e-05
0.0021376353837639726 0.11326456237451332 0.00033910028138611867
-4.2754445003579854e-05 0.11360459799519851 6.2910945961473669e-06
-9.0787205666309649e-05 0.054651179938643435 -3.2780962002954001e-10
0.0021367395209139282 0.11317597227489606 6.4713360086550402e-10
-4.2604502655318526e-05 0.1135162310496301 6.5762390981738995e-10
0.0043356367510737886 0.093984145359550936 0.00013997970472884609
-2.6329534767113883e-05 0.094070653006321961 -4.2745963320887694e-06
-9.0177236632860903e-05 0.054651550340874946 -1.7555400131798711e-05
0.0010119709119626881 0.11352510355758293 0.00017228981012146972
0.0021370071902673876 0.1131980302080299 0.00017134396521264195
-4.2699416849491691e-05 0.11353817196615763 2.7812493990032881e-06
0.0043407781799124304 0.093917094805911108 1.0545284791135683e-10
-2.6302668184894764e-05 0.094003111886980906 1.1282217436059719e-10
0.0010125617100041125 0.11343559811076084 6.4287643944629555e-10
0.004339507644949326 0.09393359471495899 7.0408039151502279e-05
-2.6244917510469047e-05 0.094019830352010753 -2.0429291624965723e-06
0.0010124756330869168 0.1134583054729574 8.640541546672363e-05
-2.6432099918574896e-05 0.068155940339438018 4.6101800248283021e-07
-0.015277272448498814 0.067889653584593312 0.00052371119714295219
-0.016854737042942877 -0.046247535310780775 -0.00027130841963211183
-2.6421544900798179e-05 0.067971077400199559 -1.0324057813144095e-07
-0.015313561200019653 0.067672501915567493 0.00025929285775938164
-0.016887413716618657 -0.04614128953448815 -0.00014853714091859062
-0.0075487648437557705 0.068069867082502247 0.00025366927042509371
-0.0085076896057043761 0.012191887996509365 4.5643329293170066e-05
-2.6437343838386844e-05 0.068049890356974702 3.3364677795886992e-07
-0.017016852486466342 0.01216629085639374 5.9931300127705097e-06
-0.015304868045293988 0.067754999849813577 0.00038995331685188014
-0.016878613466057117 -0.046185754477557357 -0.00021399225044361808
-0.0075742424139299235 0.067872715575810358 0.00012608842688099223
-0.0085240381019627623 0.012182888666557378 1.4802312277614288e-05
-0.017043578048747007 0.012171127676043742 1.5821767682142217e-05
-0.0075655165548298977 0.067954745581843432 0.0001885493929459656
-0.0085166457988869251 0.012188098053422932 2.7931709615733918e-05
-0.017036212348131987 0.012175871306339469 1.6592848113619569e-05
-2.6421544900798179e-05 0.067971077400199559 -1.0324057813144095e-07
-0.015313561200019653 0.067672501915567493 0.00025929285775938164
-0.016887413716618657 -0.04614128953448815 -0.00014853714091859062
-2.6566563895168345e-05 0.067906931278424801 6.2208118167551293e-10
-0.015316334887727436 0.067608207370730491 3.7224895959363481e-10
-0.016890274774138028 -0.046103013960676009 -5.6315139268838419e-10
-0.0075742424139299235 0.067872715575810358 0.00012608842688099223
-0.0085240381019627623 0.012182888666557378 1.4802312277614288e-05
-2.6528404320348941e-05 0.067922978073266763 -1.1984130089241078e-07
-0.017043578048747007 0.012171127676043742 1.5821767682142217e-05
-0.015316044695995189 0.067623977720854447 0.00012950960154166377
-0.01688990000978426 -0.046112514259959256 -7.5651438617185268e-05
-0.007578921824219171 0.067808158706293378 4.8765869103315448e-10
-0.0085293443657697664 0.012177786151337995 1.0353100763155472e-10
-0.017047415553438906 0.012165220471955347 -3.2204965522325582e-11
-0.0075779357123176728 0.067824318882591383 6.3149855445761538e-05
-0.0085280538441403122 0.012179186918964453 6.6668450368657132e-06
-0.017046661993480147 0.012166852928735964 8.9181533113619661e-06
-3.8629776925927156e-05 0.11388708704326701 1.5954243159964176e-05
-0.015277272448498814 0.067889653584593312 0.00052371119714295219
-2.6432099918574896e-05 0.068155940339438018 4.6101800248283021e-07
-4.2754445003579854e-05 0.11360459799519851 6.2910945961473669e-06
-0.015313561200019653 0.067672501915567493 0.00025929285775938164
-2.6421544900798179e-05 0.067971077400199559 -1.0324057813144095e-07
-0.003419901768127104 0.10595717199824091 0.00041960536966410551
-2.5315471368155666e-05 0.106046448572528 5.7200001687247003e-07
-4.2393443135076612e-05 0.11371570798997729 1.1083889752506693e-05
-0.0075487648437557705 0.068069867082502247 0.00025366927042509371
-0.015304868045293988 0.067754999849813577 0.00038995331685188014
-2.6437343838386844e-05 0.068049890356974702 3.3364677795886992e-07
-0.0034268021096526208 0.10565658010478264 0.00020757294246957829
-2.586733051792779e-05 0.10574211929386867 9.2097839486012038e-07
-0.0075742424139299235 0.067872715575810358 0.00012608842688099223
-0.0034245822284844967 0.1057800444601138 0.00031371949873817729
-2.583581989247807e-05 0.10586628307040286 8.5254237161150893e-07
-0.0075655165548298969 0.067954745581843432 0.0001885493929459656
-4.2754445003579854e-05 0.11360459799519851 6.2910945961473669e-06
-0.015313561200019653 0.067672501915567493 0.00025929285775938164
-2.6421544900798179e-05 0.067971077400199559 -1.0324057813144095e-07
-4.2604502655318526e-05 0.1135162310496301 6.5762390981738995e-10
-0.015316334887727436 0.067608207370730491 3.7224895959363481e-10
-2.6566563895168345e-05 0.067906931278424801 6.2208118167551293e-10
-0.0034268021096526208 0.10565658010478264 0.00020757294246957829
-2.586733051792779e-05 0.10574211929386867 9.2097839486012038e-07
-4.2699416849491691e-05 0.11353817196615763 2.7812493990032881e-06
-0.0075742424139299235 0.067872715575810358 0.00012608842688099223
-0.015316044695995189 0.067623977720854447 0.00012950960154166377
-2.6528404320348941e-05 0.067922978073266763 -1.1984130089241078e-07
-0.0034284698400551756 0.10555785796135939 7.7915379834210931e-10
-2.5697124300001713e-05 0.10564356913633034 8.4362777653764452e-10